 # 36.15 0. 0. 0. 36.15 0. 0. 0. 36.15
  
        4000  atoms
           1  atom types
 
      0.000000000000      36.15  xlo xhi
      0.000000000000      36.15  ylo yhi
      0.000000000000      36.15  zlo zhi
 
Masses
 
            1   63.54600000             # Cu
 
Atoms # atomic
 
         1    1        0.036397060000      36.117093300000       0.100915470000
         2    1        1.850921770000       1.709167370000      36.081287630000
         3    1        0.010132940000       1.755472870000       1.866583510000
         4    1        1.759024880000       0.112341550000       1.871035280000
         5    1        3.506770660000      36.092399710000      36.109394810000
         6    1        5.437801620000       1.755592420000       0.077824970000
         7    1        3.576270500000       1.910044250000       1.725025080000
         8    1        5.337432910000      36.133975560000       1.733284830000
         9    1        7.253695350000      36.096775470000       0.111834110000
        10    1        9.002435930000       1.772467250000       0.003434740000
        11    1        7.276714500000       1.903811390000       1.838685590000
        12    1        8.963547350000       0.109546840000       1.812101270000
        13    1       10.930708880000       0.081382740000      36.047001100000
        14    1       12.745595170000       1.822303730000       0.034435220000
        15    1       10.895148790000       1.864453340000       1.800067540000
        16    1       12.624733010000      36.055775750000       1.830966580000
        17    1       14.538706490000      36.111972520000      36.041617060000
        18    1       16.360504740000       1.906626560000       0.056925060000
        19    1       14.555999870000       1.844663980000       1.765123530000
        20    1       16.357628080000       0.076046370000       1.729348850000
        21    1       17.991880150000       0.102847240000       0.018426330000
        22    1       19.870267590000       1.698330740000      36.125330580000
        23    1       18.003193150000       1.812734000000       1.698680900000
        24    1       19.856830900000      36.107621030000       1.765775680000
        25    1       21.609729720000      36.137200170000       0.085484420000
        26    1       23.556426490000       1.757812860000       0.044950030000
        27    1       21.647692290000       1.815853700000       1.916349800000
        28    1       23.416335840000       0.046122580000       1.722040220000
        29    1       25.206145950000      36.058655830000      36.051203180000
        30    1       27.057173480000       1.904506800000      36.114352380000
        31    1       25.352753050000       1.786888090000       1.888781300000
        32    1       27.186587170000      36.080468360000       1.698345650000
        33    1       29.009718530000      36.087112640000      36.065849880000
        34    1       30.728798840000       1.816221370000      36.144997980000
        35    1       28.963853460000       1.883858890000       1.720498740000
        36    1       30.841132680000      36.094064570000       1.772176790000
        37    1       32.500939460000      36.143489860000      36.074560030000
        38    1       34.255407840000       1.760020180000       0.054573120000
        39    1       32.482328460000       1.782216410000       1.707824340000
        40    1       34.438701250000       0.019271250000       1.840998170000
        41    1        0.050797300000       3.562382720000       0.081216510000
        42    1        1.796232790000       5.497765410000       0.010536100000
        43    1       36.081787500000       5.393132430000       1.872946010000
        44    1        1.831876210000       3.605844990000       1.907033520000
        45    1        3.621062210000       3.662234860000       0.088442750000
        46    1        5.354622020000       5.482897180000      36.034824750000
        47    1        3.676575100000       5.494548270000       1.707751360000
        48    1        5.491619160000       3.514052940000       1.808694070000
        49    1        7.292168750000       3.671637410000      36.140292620000
        50    1        8.947235870000       5.351424760000       0.092442340000
        51    1        7.338817090000       5.383052090000       1.857892860000
        52    1        8.984589650000       3.683569070000       1.713698090000
        53    1       10.735269200000       3.692673120000      36.066340480000
        54    1       12.685423530000       5.515160840000      36.108740300000
        55    1       10.949044410000       5.364486360000       1.871833950000
        56    1       12.723963580000       3.502427240000       1.921734500000
        57    1       14.429610680000       3.571462150000       0.101021760000
        58    1       16.315384600000       5.333300580000       0.108095870000
        59    1       14.393869740000       5.368262690000       1.736441000000
        60    1       16.300234600000       3.518391910000       1.784035900000
        61    1       18.104669240000       3.580757460000      36.060787460000
        62    1       19.928705070000       5.452386900000      36.054783130000
        63    1       17.966246370000       5.494246110000       1.714633100000
        64    1       19.852668070000       3.663919740000       1.907227480000
        65    1       21.753387240000       3.713410230000      36.128052070000
        66    1       23.458112180000       5.460150030000       0.065642940000
        67    1       21.688060810000       5.459388030000       1.775265950000
        68    1       23.414198420000       3.565673920000       1.749080940000
        69    1       25.349421320000       3.711897070000       0.090145260000
        70    1       27.154757700000       5.422861740000      36.095525650000
        71    1       25.397980440000       5.340448410000       1.852870210000
        72    1       27.126169520000       3.653248390000       1.838725330000
        73    1       28.929852740000       3.701189460000      36.070336940000
        74    1       30.790807350000       5.483793270000      36.123440740000
        75    1       28.943139730000       5.451692530000       1.868189030000
        76    1       30.749416070000       3.717309050000       1.717084290000
        77    1       32.513728760000       3.571140830000       0.027881750000
        78    1       34.282344780000       5.439291960000       0.029933890000
        79    1       32.508181450000       5.371536650000       1.748744810000
        80    1       34.447444870000       3.714409580000       1.761225480000
        81    1        0.083449850000       7.152674090000       0.002120570000
        82    1        1.832507770000       8.933240080000       0.091620650000
        83    1       36.036939590000       8.924102260000       1.721500020000
        84    1        1.764944010000       7.179859040000       1.703354680000
        85    1        3.503540030000       7.174587520000      36.130161010000
        86    1        5.396015040000       9.013500390000       0.005141930000
        87    1        3.544219090000       9.114292950000       1.907346500000
        88    1        5.372240560000       7.282816990000       1.784688820000
        89    1        7.270517960000       7.327874160000       0.099405920000
        90    1        9.007963690000       8.941797730000      36.045203070000
        91    1        7.209908590000       9.139338820000       1.771144130000
        92    1        9.081906550000       7.253419160000       1.867806570000
        93    1       10.932268220000       7.263297840000      36.112596100000
        94    1       12.554147100000       9.029392680000       0.071857000000
        95    1       10.920594520000       9.063944040000       1.892527310000
        96    1       12.606048620000       7.268247100000       1.726099570000
        97    1       14.520860380000       7.184185530000       0.011517460000
        98    1       16.227656720000       9.134840870000       0.112378840000
        99    1       14.460057640000       8.922484860000       1.846107710000
       100    1       16.375246270000       7.145774220000       1.792227470000
       101    1       17.967771940000       7.235246350000      36.055887170000
       102    1       19.958741680000       9.080196660000      36.061502680000
       103    1       18.071507130000       8.977948980000       1.818357870000
       104    1       19.862718830000       7.340556750000       1.899269960000
       105    1       21.590753000000       7.256845730000       0.029952180000
       106    1       23.497658950000       9.140766940000      36.143603290000
       107    1       21.591116750000       8.959752630000       1.870857620000
       108    1       23.411606220000       7.173773450000       1.818696150000
       109    1       25.267346040000       7.123544420000       0.082307300000
       110    1       27.030164910000       9.041993640000       0.059008420000
       111    1       25.259768260000       9.030924000000       1.894771470000
       112    1       27.007984180000       7.139794090000       1.772187960000
       113    1       28.983779500000       7.173190660000      36.140145950000
       114    1       30.684156070000       8.976320450000       0.069988530000
       115    1       28.860833490000       9.034531640000       1.900559160000
       116    1       30.729276800000       7.225996860000       1.767608900000
       117    1       32.435394840000       7.326509940000      36.106231420000
       118    1       34.405663000000       9.124727050000      36.145829320000
       119    1       32.487279030000       8.967785090000       1.912506530000
       120    1       34.400366070000       7.126876340000       1.757038320000
       121    1        0.074881870000      10.836295360000       0.090275530000
       122    1        1.751743270000      12.730063450000      36.126588640000
       123    1        0.114053870000      12.740366000000       1.752113240000
       124    1        1.840859570000      10.753637130000       1.807062350000
       125    1        3.685690680000      10.781451350000       0.028237420000
       126    1        5.342460230000      12.744246560000      36.141440700000
       127    1        3.546799680000      12.561512790000       1.745593400000
       128    1        5.443240110000      10.872563100000       1.757420590000
       129    1        7.314132750000      10.859484650000       0.034893650000
       130    1        9.111015870000      12.644124300000       0.082788990000
       131    1        7.315942550000      12.590602910000       1.726879510000
       132    1        9.029786950000      10.901572970000       1.878003860000
       133    1       10.909989610000      10.884286120000       0.025985380000
       134    1       12.615140800000      12.715725150000      36.076922850000
       135    1       10.899228510000      12.593608340000       1.731796820000
       136    1       12.577860710000      10.740825420000       1.828759550000
       137    1       14.531356820000      10.734332240000      36.137445700000
       138    1       16.180166000000      12.554178710000       0.039831550000
       139    1       14.429875570000      12.682266840000       1.791407170000
       140    1       16.347010600000      10.827720000000       1.713836020000
       141    1       18.168565800000      10.827147240000       0.023128440000
       142    1       19.913028070000      12.711275180000       0.020209880000
       143    1       17.976383990000      12.652798610000       1.902415830000
       144    1       19.995047380000      10.858975280000       1.710034560000
       145    1       21.732963280000      10.843169150000      36.051133080000
       146    1       23.478672120000      12.649668870000      36.105322900000
       147    1       21.605522350000      12.759017800000       1.847127290000
       148    1       23.430374770000      10.777595240000       1.753159020000
       149    1       25.292151910000      10.897389070000       0.042275670000
       150    1       27.007292260000      12.709921040000      36.117225960000
       151    1       25.207777290000      12.651689460000       1.829500370000
       152    1       27.129391190000      10.935975630000       1.736655200000
       153    1       28.894670370000      10.901033080000       0.076836100000
       154    1       30.753680080000      12.646832490000       0.043903300000
       155    1       28.904387390000      12.753633770000       1.764710650000
       156    1       30.684473300000      10.901290710000       1.758638300000
       157    1       32.537035350000      10.829244280000       0.093160020000
       158    1       34.261116870000      12.613163960000       0.013100180000
       159    1       32.578244580000      12.586076750000       1.919221170000
       160    1       34.419927050000      10.850649140000       1.777587620000
       161    1       36.117912030000      14.565217130000       0.082663810000
       162    1        1.789387850000      16.335620090000       0.113504450000
       163    1       36.091503400000      16.355102010000       1.832031960000
       164    1        1.721625040000      14.471654990000       1.878094460000
       165    1        3.618172730000      14.466511160000      36.118055990000
       166    1        5.311576440000      16.352998850000      36.046620390000
       167    1        3.715900390000      16.266445420000       1.878578590000
       168    1        5.400856840000      14.401814680000       1.898539490000
       169    1        7.225264450000      14.416840230000      36.046447710000
       170    1        9.102266250000      16.164803030000      36.067608220000
       171    1        7.115254390000      16.164078540000       1.725917320000
       172    1        8.961510090000      14.554813290000       1.761533060000
       173    1       10.746035140000      14.426101930000      36.046649040000
       174    1       12.673425540000      16.277591030000       0.104713040000
       175    1       10.885144400000      16.186986350000       1.812939870000
       176    1       12.622786770000      14.428969000000       1.723591610000
       177    1       14.530744700000      14.553822620000      36.071338700000
       178    1       16.216475020000      16.239645430000      36.104114270000
       179    1       14.488508730000      16.362604140000       1.894226910000
       180    1       16.269703000000      14.399543550000       1.821848580000
       181    1       18.053926060000      14.544048520000      36.079071740000
       182    1       19.933534550000      16.162313660000       0.099074360000
       183    1       18.045542490000      16.294946520000       1.836083600000
       184    1       19.923440330000      14.536300630000       1.832353150000
       185    1       21.600807510000      14.408098880000       0.063617800000
       186    1       23.554067400000      16.375169810000       0.015219590000
       187    1       21.670444550000      16.353635530000       1.755730110000
       188    1       23.545220610000      14.424030860000       1.774000940000
       189    1       25.206838320000      14.470613710000      36.147079670000
       190    1       27.079684420000      16.278879570000      36.102551810000
       191    1       25.211264550000      16.194407720000       1.812431360000
       192    1       27.005249400000      14.463957000000       1.694351330000
       193    1       29.011888570000      14.363491600000      36.104833910000
       194    1       30.826407000000      16.378561960000       0.051245810000
       195    1       28.958257590000      16.256685020000       1.895101260000
       196    1       30.709960660000      14.403691200000       1.711430740000
       197    1       32.639008990000      14.489086860000       0.012756610000
       198    1       34.438317280000      16.347987480000      36.084551460000
       199    1       32.616211460000      16.181888650000       1.907127540000
       200    1       34.413143510000      14.544164510000       1.897216470000
       201    1       36.050416140000      18.151255020000       0.049654120000
       202    1        1.777730830000      19.795932930000      36.148290660000
       203    1        0.036586210000      19.944086170000       1.747445960000
       204    1        1.805874090000      18.153811880000       1.869208190000
       205    1        3.651628530000      17.981360980000      36.040645430000
       206    1        5.512533950000      19.911952310000       0.022410550000
       207    1        3.568001190000      19.841111310000       1.910234580000
       208    1        5.396697240000      18.016653360000       1.711141440000
       209    1        7.175642120000      18.030890210000      36.111455480000
       210    1        9.151474550000      19.826781650000       0.057003350000
       211    1        7.165935930000      19.925797340000       1.804161760000
       212    1        9.152581800000      18.173725760000       1.889755990000
       213    1       10.908388390000      17.965079490000      36.034816780000
       214    1       12.690105210000      19.979507270000       0.003273790000
       215    1       10.767841180000      19.902184600000       1.740388560000
       216    1       12.567446880000      18.123356820000       1.871721090000
       217    1       14.484630140000      18.005825590000      36.089356390000
       218    1       16.310303310000      19.900839290000      36.071217480000
       219    1       14.419516000000      19.954541540000       1.716583580000
       220    1       16.363119440000      18.051183820000       1.865927420000
       221    1       18.054611510000      18.175500620000      36.106131880000
       222    1       19.988102010000      19.796158690000      36.095372430000
       223    1       17.982387720000      19.799024180000       1.762999040000
       224    1       19.975045360000      18.123433240000       1.885735960000
       225    1       21.705517050000      18.018362450000      36.130908740000
       226    1       23.382751040000      19.979587850000       0.107985920000
       227    1       21.725733190000      19.835770100000       1.726215900000
       228    1       23.481934180000      17.975242500000       1.721262780000
       229    1       25.346148770000      18.068414950000      36.135258850000
       230    1       27.098956070000      19.878504530000       0.078129070000
       231    1       25.317393350000      19.831454100000       1.694721680000
       232    1       27.189310560000      18.008425270000       1.745095000000
       233    1       28.807100330000      18.107305670000      36.144488880000
       234    1       30.646114810000      19.847722590000       0.019569540000
       235    1       29.013028600000      19.918630070000       1.708512030000
       236    1       30.821199750000      18.045645940000       1.718094300000
       237    1       32.541068880000      18.045329480000      36.094823360000
       238    1       34.293049070000      19.912383270000       0.028941560000
       239    1       32.490613400000      19.931014880000       1.736268620000
       240    1       34.416590020000      18.067829070000       1.764424780000
       241    1       36.140087480000      21.588413280000       0.034266710000
       242    1        1.763586140000      23.399187340000      36.115759110000
       243    1       36.090016360000      23.605073680000       1.691846100000
       244    1        1.903631100000      21.696135910000       1.710895680000
       245    1        3.514866410000      21.767782260000      36.127843130000
       246    1        5.440127190000      23.483940800000      36.068166070000
       247    1        3.508278910000      23.501243650000       1.920173210000
       248    1        5.486363640000      21.691634160000       1.883312070000
       249    1        7.187550360000      21.794406190000       0.095483610000
       250    1        9.118415880000      23.606257700000      36.059179880000
       251    1        7.176102580000      23.385727190000       1.806935660000
       252    1        9.083233740000      21.587253200000       1.716739770000
       253    1       10.796963400000      21.697595280000      36.130805500000
       254    1       12.615821390000      23.513657890000      36.092911920000
       255    1       10.942633180000      23.426067480000       1.698567880000
       256    1       12.756334940000      21.708189600000       1.861842790000
       257    1       14.433305060000      21.671987040000       0.022867120000
       258    1       16.326503710000      23.604163780000       0.058044250000
       259    1       14.542923550000      23.466839940000       1.735259060000
       260    1       16.197260260000      21.789651180000       1.714323750000
       261    1       18.124375320000      21.589773800000       0.082733720000
       262    1       19.777612680000      23.507398870000      36.092045160000
       263    1       18.140911480000      23.520172600000       1.814152740000
       264    1       19.953256610000      21.650861500000       1.846913740000
       265    1       21.730560030000      21.778664000000      36.081623470000
       266    1       23.466926510000      23.593170050000       0.053777370000
       267    1       21.719776430000      23.594031530000       1.851566430000
       268    1       23.527736170000      21.740496980000       1.808951590000
       269    1       25.380877090000      21.660393040000      36.104172870000
       270    1       27.116497830000      23.488683180000      36.034828140000
       271    1       25.243444940000      23.439658730000       1.901651290000
       272    1       27.151016380000      21.752598750000       1.820891820000
       273    1       28.804880300000      21.680027600000      36.102737940000
       274    1       30.687989420000      23.485433260000       0.063131500000
       275    1       28.834148800000      23.576379460000       1.862981340000
       276    1       30.650333550000      21.643545870000       1.815005120000
       277    1       32.432251790000      21.629702270000      36.122296310000
       278    1       34.454212550000      23.410676730000      36.043904860000
       279    1       32.541724560000      23.410642770000       1.909498280000
       280    1       34.254703000000      21.612290260000       1.749116010000
       281    1       36.091586830000      25.357874910000      36.083596170000
       282    1        1.829535120000      27.114354230000       0.000608210000
       283    1       36.134988540000      27.072576150000       1.799928040000
       284    1        1.771907330000      25.251896710000       1.794848280000
       285    1        3.655225540000      25.274713620000       0.098904550000
       286    1        5.489749030000      27.130506340000       0.113249270000
       287    1        3.557870920000      27.206691100000       1.800697920000
       288    1        5.527702610000      25.199779130000       1.790527450000
       289    1        7.120171400000      25.283613590000       0.008696870000
       290    1        9.036302060000      27.224622650000      36.072970680000
       291    1        7.141432410000      27.158901920000       1.727909790000
       292    1        9.008819710000      25.319944400000       1.846018850000
       293    1       10.795436620000      25.389929540000       0.070276960000
       294    1       12.562055860000      27.004552940000      36.054315010000
       295    1       10.731085230000      27.007370140000       1.872667960000
       296    1       12.659668750000      25.419927980000       1.692128710000
       297    1       14.467617620000      25.274473950000       0.017902450000
       298    1       16.315458830000      27.097242940000       0.025094110000
       299    1       14.357042890000      27.109343040000       1.767225520000
       300    1       16.307596780000      25.264005210000       1.798149160000
       301    1       18.119892590000      25.404504150000       0.096090580000
       302    1       19.859727290000      27.199449350000      36.143341580000
       303    1       18.078316400000      27.103800650000       1.831218150000
       304    1       19.786985810000      25.307365890000       1.795967080000
       305    1       21.804345870000      25.379784000000      36.085427920000
       306    1       23.499866020000      27.223923690000      36.127318520000
       307    1       21.645976180000      27.004560250000       1.876325960000
       308    1       23.563843050000      25.308724040000       1.781881110000
       309    1       25.198648570000      25.377030310000       0.041383300000
       310    1       27.207504550000      27.114896930000       0.106662920000
       311    1       25.348067660000      27.167306550000       1.815718570000
       312    1       27.096709280000      25.313929080000       1.894094350000
       313    1       28.996052580000      25.241043560000       0.038030320000
       314    1       30.631014920000      27.141255030000       0.102330700000
       315    1       29.026153590000      27.204657340000       1.762122860000
       316    1       30.706893390000      25.395830630000       1.872215380000
       317    1       32.498512060000      25.328358370000       0.027585900000
       318    1       34.357087560000      27.122807840000      36.129176500000
       319    1       32.543247790000      27.196096650000       1.879270130000
       320    1       34.416705430000      25.235022290000       1.875398500000
       321    1        0.114751350000      28.909853500000       0.097896060000
       322    1        1.820693610000      30.834445090000      36.110250940000
       323    1        0.066524460000      30.688493970000       1.809253020000
       324    1        1.804336990000      28.918269030000       1.790386070000
       325    1        3.648774120000      28.872085050000       0.102922930000
       326    1        5.352099410000      30.673209550000      36.141005190000
       327    1        3.592646010000      30.663112680000       1.798665640000
       328    1        5.526721640000      28.944903210000       1.773738580000
       329    1        7.227681870000      28.858610450000       0.082881740000
       330    1        9.087190920000      30.795595480000       0.072290610000
       331    1        7.218376330000      30.724172190000       1.839764220000
       332    1        8.926614290000      28.913659410000       1.883694210000
       333    1       10.858921210000      28.898375500000       0.069131720000
       334    1       12.635675590000      30.728709200000      36.059201960000
       335    1       10.906088550000      30.739258860000       1.703088000000
       336    1       12.724584370000      28.995179550000       1.730520520000
       337    1       14.514745640000      28.931346180000      36.133793400000
       338    1       16.208054470000      30.747595890000      36.058483360000
       339    1       14.492984310000      30.652580280000       1.751280880000
       340    1       16.243245340000      28.815601220000       1.875013870000
       341    1       18.020846940000      28.905295150000      36.081330870000
       342    1       19.893134050000      30.645086450000      36.050966890000
       343    1       18.010675740000      30.660794510000       1.853594670000
       344    1       19.776670150000      28.891368270000       1.825189480000
       345    1       21.606345300000      28.904303350000      36.042872220000
       346    1       23.462181900000      30.747904020000      36.101922030000
       347    1       21.604185420000      30.811666520000       1.789896150000
       348    1       23.410640890000      29.015219320000       1.760435810000
       349    1       25.371379520000      28.927215090000       0.051175980000
       350    1       27.142512400000      30.808556810000       0.059937840000
       351    1       25.261316780000      30.808651860000       1.739545610000
       352    1       27.061660550000      28.999675510000       1.701462270000
       353    1       28.848419940000      29.026748360000       0.086965300000
       354    1       30.730107330000      30.689765320000      36.137879740000
       355    1       28.810785250000      30.800129430000       1.866151020000
       356    1       30.717267100000      28.820169970000       1.854144200000
       357    1       32.547109920000      28.968172190000      36.084054290000
       358    1       34.418494120000      30.685870320000       0.074654420000
       359    1       32.567218490000      30.726197900000       1.813718410000
       360    1       34.242299700000      28.969209380000       1.844196900000
       361    1       36.040343280000      32.498333920000       0.061330730000
       362    1        1.763334860000      34.377249120000       0.024522470000
       363    1       36.059276270000      34.435524560000       1.833624250000
       364    1        1.919462430000      32.616973670000       1.760340180000
       365    1        3.546329610000      32.461043960000       0.102392990000
       366    1        5.376593720000      34.374115680000       0.003454550000
       367    1        3.636376030000      34.331693040000       1.800873790000
       368    1        5.468810580000      32.489704140000       1.693220360000
       369    1        7.288293160000      32.612640580000      36.131363840000
       370    1        9.035974980000      34.307483020000      36.071313420000
       371    1        7.316389350000      34.320684460000       1.825714720000