# LAMMPS data file written by OVITO Basic 3.11.3

8192 atoms
2 atom types

0.0 24.0 xlo xhi
0.0 24.0 ylo yhi
0.0 24.0 zlo zhi

Masses

1 12.0107  # C
2 1.00794  # H

Atoms  # atomic

1 1 0.0 3.7861852422e-20 -1.0222700154e-18
2 2 0.75 0.75 0.75
3 1 1.5 0.0 -4.9220408149e-19
4 2 2.25 0.75 0.75
9 1 0.0 1.5 -4.9220408149e-19
10 2 0.75 2.25 0.75
11 1 1.5 1.5 0.0
12 2 2.25 2.25 0.75
33 1 0.0 -4.9220408149e-19 1.5
34 2 0.75 0.75 2.25
35 1 1.5 0.0 1.5
36 2 2.25 0.75 2.25
41 1 0.0 1.5 1.5
42 2 0.75 2.25 2.25
43 1 1.5 1.5 1.5
44 2 2.25 2.25 2.25
5 1 3.0 0.0 -4.9220408149e-19
6 2 3.75 0.75 0.75
7 1 4.5 0.0 -4.9220408149e-19
8 2 5.25 0.75 0.75
13 1 3.0 1.5 0.0
14 2 3.75 2.25 0.75
15 1 4.5 1.5 0.0
16 2 5.25 2.25 0.75
37 1 3.0 0.0 1.5
38 2 3.75 0.75 2.25
39 1 4.5 0.0 1.5
40 2 5.25 0.75 2.25
45 1 3.0 1.5 1.5
46 2 3.75 2.25 2.25
47 1 4.5 1.5 1.5
48 2 5.25 2.25 2.25
17 1 0.0 3.0 -4.9220408149e-19
18 2 0.75 3.75 0.75
19 1 1.5 3.0 0.0
20 2 2.25 3.75 0.75
25 1 0.0 4.5 -4.9220408149e-19
26 2 0.75 5.25 0.75
27 1 1.5 4.5 0.0
28 2 2.25 5.25 0.75
49 1 0.0 3.0 1.5
50 2 0.75 3.75 2.25
51 1 1.5 3.0 1.5
52 2 2.25 3.75 2.25
57 1 0.0 4.5 1.5
58 2 0.75 5.25 2.25
59 1 1.5 4.5 1.5
60 2 2.25 5.25 2.25
21 1 3.0 3.0 0.0
22 2 3.75 3.75 0.75
23 1 4.5 3.0 0.0
24 2 5.25 3.75 0.75
29 1 3.0 4.5 0.0
30 2 3.75 5.25 0.75
31 1 4.5 4.5 0.0
32 2 5.25 5.25 0.75
53 1 3.0 3.0 1.5
54 2 3.75 3.75 2.25
55 1 4.5 3.0 1.5
56 2 5.25 3.75 2.25
61 1 3.0 4.5 1.5
62 2 3.75 5.25 2.25
63 1 4.5 4.5 1.5
64 2 5.25 5.25 2.25
65 1 0.0 -4.9220408149e-19 3.0
66 2 0.75 0.75 3.75
67 1 1.5 0.0 3.0
68 2 2.25 0.75 3.75
73 1 0.0 1.5 3.0
74 2 0.75 2.25 3.75
75 1 1.5 1.5 3.0
76 2 2.25 2.25 3.75
97 1 0.0 -4.9220408149e-19 4.5
98 2 0.75 0.75 5.25
99 1 1.5 0.0 4.5
100 2 2.25 0.75 5.25
105 1 0.0 1.5 4.5
106 2 0.75 2.25 5.25
107 1 1.5 1.5 4.5
108 2 2.25 2.25 5.25
69 1 3.0 0.0 3.0
70 2 3.75 0.75 3.75
71 1 4.5 0.0 3.0
72 2 5.25 0.75 3.75
77 1 3.0 1.5 3.0
78 2 3.75 2.25 3.75
79 1 4.5 1.5 3.0
80 2 5.25 2.25 3.75
101 1 3.0 0.0 4.5
102 2 3.75 0.75 5.25
103 1 4.5 0.0 4.5
104 2 5.25 0.75 5.25
109 1 3.0 1.5 4.5
110 2 3.75 2.25 5.25
111 1 4.5 1.5 4.5
112 2 5.25 2.25 5.25
81 1 0.0 3.0 3.0
82 2 0.75 3.75 3.75
83 1 1.5 3.0 3.0
84 2 2.25 3.75 3.75
89 1 0.0 4.5 3.0
90 2 0.75 5.25 3.75
91 1 1.5 4.5 3.0
92 2 2.25 5.25 3.75
113 1 0.0 3.0 4.5
114 2 0.75 3.75 5.25
115 1 1.5 3.0 4.5
116 2 2.25 3.75 5.25
121 1 0.0 4.5 4.5
122 2 0.75 5.25 5.25
123 1 1.5 4.5 4.5
124 2 2.25 5.25 5.25
85 1 3.0 3.0 3.0
86 2 3.75 3.75 3.75
87 1 4.5 3.0 3.0
88 2 5.25 3.75 3.75
93 1 3.0 4.5 3.0
94 2 3.75 5.25 3.75
95 1 4.5 4.5 3.0
96 2 5.25 5.25 3.75
117 1 3.0 3.0 4.5
118 2 3.75 3.75 5.25
119 1 4.5 3.0 4.5
120 2 5.25 3.75 5.25
125 1 3.0 4.5 4.5
126 2 3.75 5.25 5.25
127 1 4.5 4.5 4.5
128 2 5.25 5.25 5.25
129 1 6.0 0.0 -4.9220408149e-19
130 2 6.75 0.75 0.75
131 1 7.5 0.0 -4.9220408149e-19
132 2 8.25 0.75 0.75
137 1 6.0 1.5 0.0
138 2 6.75 2.25 0.75
139 1 7.5 1.5 0.0
140 2 8.25 2.25 0.75
161 1 6.0 0.0 1.5
162 2 6.75 0.75 2.25
163 1 7.5 0.0 1.5
164 2 8.25 0.75 2.25
169 1 6.0 1.5 1.5
170 2 6.75 2.25 2.25
171 1 7.5 1.5 1.5
172 2 8.25 2.25 2.25
133 1 9.0 0.0 -4.9220408149e-19
134 2 9.75 0.75 0.75
135 1 10.5 0.0 -4.9220408149e-19
136 2 11.25 0.75 0.75
141 1 9.0 1.5 0.0
142 2 9.75 2.25 0.75
143 1 10.5 1.5 0.0
144 2 11.25 2.25 0.75
165 1 9.0 0.0 1.5
166 2 9.75 0.75 2.25
167 1 10.5 0.0 1.5
168 2 11.25 0.75 2.25
173 1 9.0 1.5 1.5
174 2 9.75 2.25 2.25
175 1 10.5 1.5 1.5
176 2 11.25 2.25 2.25
145 1 6.0 3.0 0.0
146 2 6.75 3.75 0.75
147 1 7.5 3.0 0.0
148 2 8.25 3.75 0.75
153 1 6.0 4.5 0.0
154 2 6.75 5.25 0.75
155 1 7.5 4.5 0.0
156 2 8.25 5.25 0.75
177 1 6.0 3.0 1.5
178 2 6.75 3.75 2.25
179 1 7.5 3.0 1.5
180 2 8.25 3.75 2.25
185 1 6.0 4.5 1.5
186 2 6.75 5.25 2.25
187 1 7.5 4.5 1.5
188 2 8.25 5.25 2.25
149 1 9.0 3.0 0.0
150 2 9.75 3.75 0.75
151 1 10.5 3.0 0.0
152 2 11.25 3.75 0.75
157 1 9.0 4.5 0.0
158 2 9.75 5.25 0.75
159 1 10.5 4.5 0.0
160 2 11.25 5.25 0.75
181 1 9.0 3.0 1.5
182 2 9.75 3.75 2.25
183 1 10.5 3.0 1.5
184 2 11.25 3.75 2.25
189 1 9.0 4.5 1.5
190 2 9.75 5.25 2.25
191 1 10.5 4.5 1.5
192 2 11.25 5.25 2.25
193 1 6.0 0.0 3.0
194 2 6.75 0.75 3.75
195 1 7.5 0.0 3.0
196 2 8.25 0.75 3.75
201 1 6.0 1.5 3.0
202 2 6.75 2.25 3.75
203 1 7.5 1.5 3.0
204 2 8.25 2.25 3.75
225 1 6.0 0.0 4.5
226 2 6.75 0.75 5.25
227 1 7.5 0.0 4.5
228 2 8.25 0.75 5.25
233 1 6.0 1.5 4.5
234 2 6.75 2.25 5.25
235 1 7.5 1.5 4.5
236 2 8.25 2.25 5.25
197 1 9.0 0.0 3.0
198 2 9.75 0.75 3.75
199 1 10.5 0.0 3.0
200 2 11.25 0.75 3.75
205 1 9.0 1.5 3.0
206 2 9.75 2.25 3.75
207 1 10.5 1.5 3.0
208 2 11.25 2.25 3.75
229 1 9.0 0.0 4.5
230 2 9.75 0.75 5.25
231 1 10.5 0.0 4.5
232 2 11.25 0.75 5.25
237 1 9.0 1.5 4.5
238 2 9.75 2.25 5.25
239 1 10.5 1.5 4.5
240 2 11.25 2.25 5.25
209 1 6.0 3.0 3.0
210 2 6.75 3.75 3.75
211 1 7.5 3.0 3.0
212 2 8.25 3.75 3.75
217 1 6.0 4.5 3.0
218 2 6.75 5.25 3.75
219 1 7.5 4.5 3.0
220 2 8.25 5.25 3.75
241 1 6.0 3.0 4.5
242 2 6.75 3.75 5.25
243 1 7.5 3.0 4.5
244 2 8.25 3.75 5.25
249 1 6.0 4.5 4.5
250 2 6.75 5.25 5.25
251 1 7.5 4.5 4.5
252 2 8.25 5.25 5.25
213 1 9.0 3.0 3.0
214 2 9.75 3.75 3.75
215 1 10.5 3.0 3.0
216 2 11.25 3.75 3.75
221 1 9.0 4.5 3.0
222 2 9.75 5.25 3.75
223 1 10.5 4.5 3.0
224 2 11.25 5.25 3.75
245 1 9.0 3.0 4.5
246 2 9.75 3.75 5.25
247 1 10.5 3.0 4.5
248 2 11.25 3.75 5.25
253 1 9.0 4.5 4.5
254 2 9.75 5.25 5.25
255 1 10.5 4.5 4.5
256 2 11.25 5.25 5.25
257 1 12.0 0.0 -4.9220408149e-19
258 2 12.75 0.75 0.75
259 1 13.5 0.0 -4.9220408149e-19
260 2 14.25 0.75 0.75
265 1 12.0 1.5 0.0
266 2 12.75 2.25 0.75
267 1 13.5 1.5 0.0
268 2 14.25 2.25 0.75
289 1 12.0 0.0 1.5
290 2 12.75 0.75 2.25
291 1 13.5 0.0 1.5
292 2 14.25 0.75 2.25
297 1 12.0 1.5 1.5
298 2 12.75 2.25 2.25
299 1 13.5 1.5 1.5
300 2 14.25 2.25 2.25
261 1 15.0 0.0 -4.9220408149e-19
262 2 15.75 0.75 0.75
263 1 16.5 0.0 -4.9220408149e-19
264 2 17.25 0.75 0.75
269 1 15.0 1.5 0.0
270 2 15.75 2.25 0.75
271 1 16.5 1.5 0.0
272 2 17.25 2.25 0.75
293 1 15.0 0.0 1.5
294 2 15.75 0.75 2.25
295 1 16.5 0.0 1.5
296 2 17.25 0.75 2.25
301 1 15.0 1.5 1.5
302 2 15.75 2.25 2.25
303 1 16.5 1.5 1.5
304 2 17.25 2.25 2.25
273 1 12.0 3.0 0.0
274 2 12.75 3.75 0.75
275 1 13.5 3.0 0.0
276 2 14.25 3.75 0.75
281 1 12.0 4.5 0.0
282 2 12.75 5.25 0.75
283 1 13.5 4.5 0.0
284 2 14.25 5.25 0.75
305 1 12.0 3.0 1.5
306 2 12.75 3.75 2.25
307 1 13.5 3.0 1.5
308 2 14.25 3.75 2.25
313 1 12.0 4.5 1.5
314 2 12.75 5.25 2.25
315 1 13.5 4.5 1.5
316 2 14.25 5.25 2.25
277 1 15.0 3.0 0.0
278 2 15.75 3.75 0.75
279 1 16.5 3.0 0.0
280 2 17.25 3.75 0.75
285 1 15.0 4.5 0.0
286 2 15.75 5.25 0.75
287 1 16.5 4.5 0.0
288 2 17.25 5.25 0.75
309 1 15.0 3.0 1.5
310 2 15.75 3.75 2.25
311 1 16.5 3.0 1.5
312 2 17.25 3.75 2.25
317 1 15.0 4.5 1.5
318 2 15.75 5.25 2.25
319 1 16.5 4.5 1.5
320 2 17.25 5.25 2.25
321 1 12.0 0.0 3.0
322 2 12.75 0.75 3.75
323 1 13.5 0.0 3.0
324 2 14.25 0.75 3.75
329 1 12.0 1.5 3.0
330 2 12.75 2.25 3.75
331 1 13.5 1.5 3.0
332 2 14.25 2.25 3.75
353 1 12.0 0.0 4.5
354 2 12.75 0.75 5.25
355 1 13.5 0.0 4.5
356 2 14.25 0.75 5.25
361 1 12.0 1.5 4.5
362 2 12.75 2.25 5.25
363 1 13.5 1.5 4.5
364 2 14.25 2.25 5.25
325 1 15.0 0.0 3.0
326 2 15.75 0.75 3.75
327 1 16.5 0.0 3.0
328 2 17.25 0.75 3.75
333 1 15.0 1.5 3.0
334 2 15.75 2.25 3.75
335 1 16.5 1.5 3.0
336 2 17.25 2.25 3.75
357 1 15.0 0.0 4.5
358 2 15.75 0.75 5.25
359 1 16.5 0.0 4.5
360 2 17.25 0.75 5.25
365 1 15.0 1.5 4.5
366 2 15.75 2.25 5.25
367 1 16.5 1.5 4.5
368 2 17.25 2.25 5.25
337 1 12.0 3.0 3.0
338 2 12.75 3.75 3.75
339 1 13.5 3.0 3.0
340 2 14.25 3.75 3.75
345 1 12.0 4.5 3.0
346 2 12.75 5.25 3.75
347 1 13.5 4.5 3.0
348 2 14.25 5.25 3.75
369 1 12.0 3.0 4.5
370 2 12.75 3.75 5.25
371 1 13.5 3.0 4.5
372 2 14.25 3.75 5.25
377 1 12.0 4.5 4.5
378 2 12.75 5.25 5.25
379 1 13.5 4.5 4.5
380 2 14.25 5.25 5.25
341 1 15.0 3.0 3.0
342 2 15.75 3.75 3.75
343 1 16.5 3.0 3.0
344 2 17.25 3.75 3.75
349 1 15.0 4.5 3.0
350 2 15.75 5.25 3.75
351 1 16.5 4.5 3.0
352 2 17.25 5.25 3.75
373 1 15.0 3.0 4.5
374 2 15.75 3.75 5.25
375 1 16.5 3.0 4.5
376 2 17.25 3.75 5.25
381 1 15.0 4.5 4.5
382 2 15.75 5.25 5.25
383 1 16.5 4.5 4.5
384 2 17.25 5.25 5.25
385 1 18.0 0.0 -4.9220408149e-19
386 2 18.75 0.75 0.75
387 1 19.5 0.0 -4.9220408149e-19
388 2 20.25 0.75 0.75
393 1 18.0 1.5 0.0
394 2 18.75 2.25 0.75
395 1 19.5 1.5 0.0
396 2 20.25 2.25 0.75
417 1 18.0 0.0 1.5
418 2 18.75 0.75 2.25
419 1 19.5 0.0 1.5
420 2 20.25 0.75 2.25
425 1 18.0 1.5 1.5
426 2 18.75 2.25 2.25
427 1 19.5 1.5 1.5
428 2 20.25 2.25 2.25
389 1 21.0 0.0 -4.9220408149e-19
390 2 21.75 0.75 0.75
391 1 22.5 0.0 -4.9220408149e-19
392 2 23.25 0.75 0.75
397 1 21.0 1.5 0.0
398 2 21.75 2.25 0.75
399 1 22.5 1.5 0.0
400 2 23.25 2.25 0.75
421 1 21.0 0.0 1.5
422 2 21.75 0.75 2.25
423 1 22.5 0.0 1.5
424 2 23.25 0.75 2.25
429 1 21.0 1.5 1.5
430 2 21.75 2.25 2.25
431 1 22.5 1.5 1.5
432 2 23.25 2.25 2.25
401 1 18.0 3.0 0.0
402 2 18.75 3.75 0.75
403 1 19.5 3.0 0.0
404 2 20.25 3.75 0.75
409 1 18.0 4.5 0.0
410 2 18.75 5.25 0.75
411 1 19.5 4.5 0.0
412 2 20.25 5.25 0.75
433 1 18.0 3.0 1.5
434 2 18.75 3.75 2.25
435 1 19.5 3.0 1.5
436 2 20.25 3.75 2.25
441 1 18.0 4.5 1.5
442 2 18.75 5.25 2.25
443 1 19.5 4.5 1.5
444 2 20.25 5.25 2.25
405 1 21.0 3.0 0.0
406 2 21.75 3.75 0.75
407 1 22.5 3.0 0.0
408 2 23.25 3.75 0.75
413 1 21.0 4.5 0.0
414 2 21.75 5.25 0.75
415 1 22.5 4.5 0.0
416 2 23.25 5.25 0.75
437 1 21.0 3.0 1.5
438 2 21.75 3.75 2.25
439 1 22.5 3.0 1.5
440 2 23.25 3.75 2.25
445 1 21.0 4.5 1.5
446 2 21.75 5.25 2.25
447 1 22.5 4.5 1.5
448 2 23.25 5.25 2.25
449 1 18.0 0.0 3.0
450 2 18.75 0.75 3.75
451 1 19.5 0.0 3.0
452 2 20.25 0.75 3.75
457 1 18.0 1.5 3.0
458 2 18.75 2.25 3.75
459 1 19.5 1.5 3.0
460 2 20.25 2.25 3.75
481 1 18.0 0.0 4.5
482 2 18.75 0.75 5.25
483 1 19.5 0.0 4.5
484 2 20.25 0.75 5.25
489 1 18.0 1.5 4.5
490 2 18.75 2.25 5.25
491 1 19.5 1.5 4.5
492 2 20.25 2.25 5.25
453 1 21.0 0.0 3.0
454 2 21.75 0.75 3.75
455 1 22.5 0.0 3.0
456 2 23.25 0.75 3.75
461 1 21.0 1.5 3.0
462 2 21.75 2.25 3.75
463 1 22.5 1.5 3.0
464 2 23.25 2.25 3.75
485 1 21.0 0.0 4.5
486 2 21.75 0.75 5.25
487 1 22.5 0.0 4.5
488 2 23.25 0.75 5.25
493 1 21.0 1.5 4.5
494 2 21.75 2.25 5.25
495 1 22.5 1.5 4.5
496 2 23.25 2.25 5.25
465 1 18.0 3.0 3.0
466 2 18.75 3.75 3.75
467 1 19.5 3.0 3.0
468 2 20.25 3.75 3.75
473 1 18.0 4.5 3.0
474 2 18.75 5.25 3.75
475 1 19.5 4.5 3.0
476 2 20.25 5.25 3.75
497 1 18.0 3.0 4.5
498 2 18.75 3.75 5.25
499 1 19.5 3.0 4.5
500 2 20.25 3.75 5.25
505 1 18.0 4.5 4.5
506 2 18.75 5.25 5.25
507 1 19.5 4.5 4.5
508 2 20.25 5.25 5.25
469 1 21.0 3.0 3.0
470 2 21.75 3.75 3.75
471 1 22.5 3.0 3.0
472 2 23.25 3.75 3.75
477 1 21.0 4.5 3.0
478 2 21.75 5.25 3.75
479 1 22.5 4.5 3.0
480 2 23.25 5.25 3.75
501 1 21.0 3.0 4.5
502 2 21.75 3.75 5.25
503 1 22.5 3.0 4.5
504 2 23.25 3.75 5.25
509 1 21.0 4.5 4.5
510 2 21.75 5.25 5.25
511 1 22.5 4.5 4.5
512 2 23.25 5.25 5.25
513 1 0.0 6.0 -4.9220408149e-19
514 2 0.75 6.75 0.75
515 1 1.5 6.0 0.0
516 2 2.25 6.75 0.75
521 1 0.0 7.5 -4.9220408149e-19
522 2 0.75 8.25 0.75
523 1 1.5 7.5 0.0
524 2 2.25 8.25 0.75
545 1 6.0578963875e-19 6.0 1.5
546 2 0.75 6.75 2.25
547 1 1.5 6.0 1.5
548 2 2.25 6.75 2.25
553 1 0.0 7.5 1.5
554 2 0.75 8.25 2.25
555 1 1.5 7.5 1.5
556 2 2.25 8.25 2.25
517 1 3.0 6.0 0.0
518 2 3.75 6.75 0.75
519 1 4.5 6.0 0.0
520 2 5.25 6.75 0.75
525 1 3.0 7.5 0.0
526 2 3.75 8.25 0.75
527 1 4.5 7.5 0.0
528 2 5.25 8.25 0.75
549 1 3.0 6.0 1.5
550 2 3.75 6.75 2.25
551 1 4.5 6.0 1.5
552 2 5.25 6.75 2.25
557 1 3.0 7.5 1.5
558 2 3.75 8.25 2.25
559 1 4.5 7.5 1.5
560 2 5.25 8.25 2.25
529 1 0.0 9.0 -4.9220408149e-19
530 2 0.75 9.75 0.75
531 1 1.5 9.0 0.0
532 2 2.25 9.75 0.75
537 1 0.0 10.5 -4.9220408149e-19
538 2 0.75 11.25 0.75
539 1 1.5 10.5 0.0
540 2 2.25 11.25 0.75
561 1 0.0 9.0 1.5
562 2 0.75 9.75 2.25
563 1 1.5 9.0 1.5
564 2 2.25 9.75 2.25
569 1 0.0 10.5 1.5
570 2 0.75 11.25 2.25
571 1 1.5 10.5 1.5
572 2 2.25 11.25 2.25
533 1 3.0 9.0 0.0
534 2 3.75 9.75 0.75
535 1 4.5 9.0 0.0
536 2 5.25 9.75 0.75
541 1 3.0 10.5 0.0
542 2 3.75 11.25 0.75
543 1 4.5 10.5 0.0
544 2 5.25 11.25 0.75
565 1 3.0 9.0 1.5
566 2 3.75 9.75 2.25
567 1 4.5 9.0 1.5
568 2 5.25 9.75 2.25
573 1 3.0 10.5 1.5
574 2 3.75 11.25 2.25
575 1 4.5 10.5 1.5
576 2 5.25 11.25 2.25
577 1 6.0578963875e-19 6.0 3.0
578 2 0.75 6.75 3.75
579 1 1.5 6.0 3.0
580 2 2.25 6.75 3.75
585 1 0.0 7.5 3.0
586 2 0.75 8.25 3.75
587 1 1.5 7.5 3.0
588 2 2.25 8.25 3.75
609 1 6.0578963875e-19 6.0 4.5
610 2 0.75 6.75 5.25
611 1 1.5 6.0 4.5
612 2 2.25 6.75 5.25
617 1 0.0 7.5 4.5
618 2 0.75 8.25 5.25
619 1 1.5 7.5 4.5
620 2 2.25 8.25 5.25
581 1 3.0 6.0 3.0
582 2 3.75 6.75 3.75
583 1 4.5 6.0 3.0
584 2 5.25 6.75 3.75
589 1 3.0 7.5 3.0
590 2 3.75 8.25 3.75
591 1 4.5 7.5 3.0
592 2 5.25 8.25 3.75
613 1 3.0 6.0 4.5
614 2 3.75 6.75 5.25
615 1 4.5 6.0 4.5
616 2 5.25 6.75 5.25
621 1 3.0 7.5 4.5
622 2 3.75 8.25 5.25
623 1 4.5 7.5 4.5
624 2 5.25 8.25 5.25
593 1 0.0 9.0 3.0
594 2 0.75 9.75 3.75
595 1 1.5 9.0 3.0
596 2 2.25 9.75 3.75
601 1 0.0 10.5 3.0
602 2 0.75 11.25 3.75
603 1 1.5 10.5 3.0
604 2 2.25 11.25 3.75
625 1 0.0 9.0 4.5
626 2 0.75 9.75 5.25
627 1 1.5 9.0 4.5
628 2 2.25 9.75 5.25
633 1 0.0 10.5 4.5
634 2 0.75 11.25 5.25
635 1 1.5 10.5 4.5
636 2 2.25 11.25 5.25
597 1 3.0 9.0 3.0
598 2 3.75 9.75 3.75
599 1 4.5 9.0 3.0
600 2 5.25 9.75 3.75
605 1 3.0 10.5 3.0
606 2 3.75 11.25 3.75
607 1 4.5 10.5 3.0
608 2 5.25 11.25 3.75
629 1 3.0 9.0 4.5
630 2 3.75 9.75 5.25
631 1 4.5 9.0 4.5
632 2 5.25 9.75 5.25
637 1 3.0 10.5 4.5
638 2 3.75 11.25 5.25
639 1 4.5 10.5 4.5
640 2 5.25 11.25 5.25
641 1 6.0 6.0 0.0
642 2 6.75 6.75 0.75
643 1 7.5 6.0 0.0
644 2 8.25 6.75 0.75
649 1 6.0 7.5 0.0
650 2 6.75 8.25 0.75
651 1 7.5 7.5 0.0
652 2 8.25 8.25 0.75
673 1 6.0 6.0 1.5
674 2 6.75 6.75 2.25
675 1 7.5 6.0 1.5
676 2 8.25 6.75 2.25
681 1 6.0 7.5 1.5
682 2 6.75 8.25 2.25
683 1 7.5 7.5 1.5
684 2 8.25 8.25 2.25
645 1 9.0 6.0 0.0
646 2 9.75 6.75 0.75
647 1 10.5 6.0 0.0
648 2 11.25 6.75 0.75
653 1 9.0 7.5 0.0
654 2 9.75 8.25 0.75
655 1 10.5 7.5 0.0
656 2 11.25 8.25 0.75
677 1 9.0 6.0 1.5
678 2 9.75 6.75 2.25
679 1 10.5 6.0 1.5
680 2 11.25 6.75 2.25
685 1 9.0 7.5 1.5
686 2 9.75 8.25 2.25
687 1 10.5 7.5 1.5
688 2 11.25 8.25 2.25
657 1 6.0 9.0 0.0
658 2 6.75 9.75 0.75
659 1 7.5 9.0 0.0
660 2 8.25 9.75 0.75
665 1 6.0 10.5 0.0
666 2 6.75 11.25 0.75
667 1 7.5 10.5 0.0
668 2 8.25 11.25 0.75
689 1 6.0 9.0 1.5
690 2 6.75 9.75 2.25
691 1 7.5 9.0 1.5
692 2 8.25 9.75 2.25
697 1 6.0 10.5 1.5
698 2 6.75 11.25 2.25
699 1 7.5 10.5 1.5
700 2 8.25 11.25 2.25
661 1 9.0 9.0 0.0
662 2 9.75 9.75 0.75
663 1 10.5 9.0 0.0
664 2 11.25 9.75 0.75
669 1 9.0 10.5 0.0
670 2 9.75 11.25 0.75
671 1 10.5 10.5 0.0
672 2 11.25 11.25 0.75
693 1 9.0 9.0 1.5
694 2 9.75 9.75 2.25
695 1 10.5 9.0 1.5
696 2 11.25 9.75 2.25
701 1 9.0 10.5 1.5
702 2 9.75 11.25 2.25
703 1 10.5 10.5 1.5
704 2 11.25 11.25 2.25
705 1 6.0 6.0 3.0
706 2 6.75 6.75 3.75
707 1 7.5 6.0 3.0
708 2 8.25 6.75 3.75
713 1 6.0 7.5 3.0
714 2 6.75 8.25 3.75
715 1 7.5 7.5 3.0
716 2 8.25 8.25 3.75
737 1 6.0 6.0 4.5
738 2 6.75 6.75 5.25
739 1 7.5 6.0 4.5
740 2 8.25 6.75 5.25
745 1 6.0 7.5 4.5
746 2 6.75 8.25 5.25
747 1 7.5 7.5 4.5
748 2 8.25 8.25 5.25
709 1 9.0 6.0 3.0
710 2 9.75 6.75 3.75
711 1 10.5 6.0 3.0
712 2 11.25 6.75 3.75
717 1 9.0 7.5 3.0
718 2 9.75 8.25 3.75
719 1 10.5 7.5 3.0
720 2 11.25 8.25 3.75
741 1 9.0 6.0 4.5
742 2 9.75 6.75 5.25
743 1 10.5 6.0 4.5
744 2 11.25 6.75 5.25
749 1 9.0 7.5 4.5
750 2 9.75 8.25 5.25
751 1 10.5 7.5 4.5
752 2 11.25 8.25 5.25
721 1 6.0 9.0 3.0
722 2 6.75 9.75 3.75
723 1 7.5 9.0 3.0
724 2 8.25 9.75 3.75
729 1 6.0 10.5 3.0
730 2 6.75 11.25 3.75
731 1 7.5 10.5 3.0
732 2 8.25 11.25 3.75
753 1 6.0 9.0 4.5
754 2 6.75 9.75 5.25
755 1 7.5 9.0 4.5
756 2 8.25 9.75 5.25
761 1 6.0 10.5 4.5
762 2 6.75 11.25 5.25
763 1 7.5 10.5 4.5
764 2 8.25 11.25 5.25
725 1 9.0 9.0 3.0
726 2 9.75 9.75 3.75
727 1 10.5 9.0 3.0
728 2 11.25 9.75 3.75
733 1 9.0 10.5 3.0
734 2 9.75 11.25 3.75
735 1 10.5 10.5 3.0
736 2 11.25 11.25 3.75
757 1 9.0 9.0 4.5
758 2 9.75 9.75 5.25
759 1 10.5 9.0 4.5
760 2 11.25 9.75 5.25
765 1 9.0 10.5 4.5
766 2 9.75 11.25 5.25
767 1 10.5 10.5 4.5
768 2 11.25 11.25 5.25
769 1 12.0 6.0 0.0
770 2 12.75 6.75 0.75
771 1 13.5 6.0 0.0
772 2 14.25 6.75 0.75
777 1 12.0 7.5 0.0
778 2 12.75 8.25 0.75
779 1 13.5 7.5 0.0
780 2 14.25 8.25 0.75
801 1 12.0 6.0 1.5
802 2 12.75 6.75 2.25
803 1 13.5 6.0 1.5
804 2 14.25 6.75 2.25
809 1 12.0 7.5 1.5
810 2 12.75 8.25 2.25
811 1 13.5 7.5 1.5
812 2 14.25 8.25 2.25
773 1 15.0 6.0 0.0
774 2 15.75 6.75 0.75
775 1 16.5 6.0 0.0
776 2 17.25 6.75 0.75
781 1 15.0 7.5 0.0
782 2 15.75 8.25 0.75
783 1 16.5 7.5 0.0
784 2 17.25 8.25 0.75
805 1 15.0 6.0 1.5
806 2 15.75 6.75 2.25
807 1 16.5 6.0 1.5
808 2 17.25 6.75 2.25
813 1 15.0 7.5 1.5
814 2 15.75 8.25 2.25
815 1 16.5 7.5 1.5
816 2 17.25 8.25 2.25
785 1 12.0 9.0 0.0
786 2 12.75 9.75 0.75
787 1 13.5 9.0 0.0
788 2 14.25 9.75 0.75
793 1 12.0 10.5 0.0
794 2 12.75 11.25 0.75
795 1 13.5 10.5 0.0
796 2 14.25 11.25 0.75
817 1 12.0 9.0 1.5
818 2 12.75 9.75 2.25
819 1 13.5 9.0 1.5
820 2 14.25 9.75 2.25
825 1 12.0 10.5 1.5
826 2 12.75 11.25 2.25
827 1 13.5 10.5 1.5
828 2 14.25 11.25 2.25
789 1 15.0 9.0 0.0
790 2 15.75 9.75 0.75
791 1 16.5 9.0 0.0
792 2 17.25 9.75 0.75
797 1 15.0 10.5 0.0
798 2 15.75 11.25 0.75
799 1 16.5 10.5 0.0
800 2 17.25 11.25 0.75
821 1 15.0 9.0 1.5
822 2 15.75 9.75 2.25
823 1 16.5 9.0 1.5
824 2 17.25 9.75 2.25
829 1 15.0 10.5 1.5
830 2 15.75 11.25 2.25
831 1 16.5 10.5 1.5
832 2 17.25 11.25 2.25
833 1 12.0 6.0 3.0
834 2 12.75 6.75 3.75
835 1 13.5 6.0 3.0
836 2 14.25 6.75 3.75
841 1 12.0 7.5 3.0
842 2 12.75 8.25 3.75
843 1 13.5 7.5 3.0
844 2 14.25 8.25 3.75
865 1 12.0 6.0 4.5
866 2 12.75 6.75 5.25
867 1 13.5 6.0 4.5
868 2 14.25 6.75 5.25
873 1 12.0 7.5 4.5
874 2 12.75 8.25 5.25
875 1 13.5 7.5 4.5
876 2 14.25 8.25 5.25
837 1 15.0 6.0 3.0
838 2 15.75 6.75 3.75
839 1 16.5 6.0 3.0
840 2 17.25 6.75 3.75
845 1 15.0 7.5 3.0
846 2 15.75 8.25 3.75
847 1 16.5 7.5 3.0
848 2 17.25 8.25 3.75
869 1 15.0 6.0 4.5
870 2 15.75 6.75 5.25
871 1 16.5 6.0 4.5
872 2 17.25 6.75 5.25
877 1 15.0 7.5 4.5
878 2 15.75 8.25 5.25
879 1 16.5 7.5 4.5
880 2 17.25 8.25 5.25
849 1 12.0 9.0 3.0
850 2 12.75 9.75 3.75
851 1 13.5 9.0 3.0
852 2 14.25 9.75 3.75
857 1 12.0 10.5 3.0
858 2 12.75 11.25 3.75
859 1 13.5 10.5 3.0
860 2 14.25 11.25 3.75
881 1 12.0 9.0 4.5
882 2 12.75 9.75 5.25
883 1 13.5 9.0 4.5
884 2 14.25 9.75 5.25
889 1 12.0 10.5 4.5
890 2 12.75 11.25 5.25
891 1 13.5 10.5 4.5
892 2 14.25 11.25 5.25
853 1 15.0 9.0 3.0
854 2 15.75 9.75 3.75
855 1 16.5 9.0 3.0
856 2 17.25 9.75 3.75
861 1 15.0 10.5 3.0
862 2 15.75 11.25 3.75
863 1 16.5 10.5 3.0
864 2 17.25 11.25 3.75
885 1 15.0 9.0 4.5
886 2 15.75 9.75 5.25
887 1 16.5 9.0 4.5
888 2 17.25 9.75 5.25
893 1 15.0 10.5 4.5
894 2 15.75 11.25 5.25
895 1 16.5 10.5 4.5
896 2 17.25 11.25 5.25
897 1 18.0 6.0 0.0
898 2 18.75 6.75 0.75
899 1 19.5 6.0 0.0
900 2 20.25 6.75 0.75
905 1 18.0 7.5 0.0
906 2 18.75 8.25 0.75
907 1 19.5 7.5 0.0
908 2 20.25 8.25 0.75
929 1 18.0 6.0 1.5
930 2 18.75 6.75 2.25
931 1 19.5 6.0 1.5
932 2 20.25 6.75 2.25
937 1 18.0 7.5 1.5
938 2 18.75 8.25 2.25
939 1 19.5 7.5 1.5
940 2 20.25 8.25 2.25
901 1 21.0 6.0 0.0
902 2 21.75 6.75 0.75
903 1 22.5 6.0 0.0
904 2 23.25 6.75 0.75
909 1 21.0 7.5 0.0
910 2 21.75 8.25 0.75
911 1 22.5 7.5 0.0
912 2 23.25 8.25 0.75
933 1 21.0 6.0 1.5
934 2 21.75 6.75 2.25
935 1 22.5 6.0 1.5
936 2 23.25 6.75 2.25
941 1 21.0 7.5 1.5
942 2 21.75 8.25 2.25
943 1 22.5 7.5 1.5
944 2 23.25 8.25 2.25
913 1 18.0 9.0 0.0
914 2 18.75 9.75 0.75
915 1 19.5 9.0 0.0
916 2 20.25 9.75 0.75
921 1 18.0 10.5 0.0
922 2 18.75 11.25 0.75
923 1 19.5 10.5 0.0
924 2 20.25 11.25 0.75
945 1 18.0 9.0 1.5
946 2 18.75 9.75 2.25
947 1 19.5 9.0 1.5
948 2 20.25 9.75 2.25
953 1 18.0 10.5 1.5
954 2 18.75 11.25 2.25
955 1 19.5 10.5 1.5
956 2 20.25 11.25 2.25
917 1 21.0 9.0 0.0
918 2 21.75 9.75 0.75
919 1 22.5 9.0 0.0
920 2 23.25 9.75 0.75
925 1 21.0 10.5 0.0
926 2 21.75 11.25 0.75
927 1 22.5 10.5 0.0
928 2 23.25 11.25 0.75
949 1 21.0 9.0 1.5
950 2 21.75 9.75 2.25
951 1 22.5 9.0 1.5
952 2 23.25 9.75 2.25
957 1 21.0 10.5 1.5
958 2 21.75 11.25 2.25
959 1 22.5 10.5 1.5
960 2 23.25 11.25 2.25
961 1 18.0 6.0 3.0
962 2 18.75 6.75 3.75
963 1 19.5 6.0 3.0
964 2 20.25 6.75 3.75
969 1 18.0 7.5 3.0
970 2 18.75 8.25 3.75
971 1 19.5 7.5 3.0
972 2 20.25 8.25 3.75
993 1 18.0 6.0 4.5
994 2 18.75 6.75 5.25
995 1 19.5 6.0 4.5
996 2 20.25 6.75 5.25
1001 1 18.0 7.5 4.5
1002 2 18.75 8.25 5.25
1003 1 19.5 7.5 4.5
1004 2 20.25 8.25 5.25
965 1 21.0 6.0 3.0
966 2 21.75 6.75 3.75
967 1 22.5 6.0 3.0
968 2 23.25 6.75 3.75
973 1 21.0 7.5 3.0
974 2 21.75 8.25 3.75
975 1 22.5 7.5 3.0
976 2 23.25 8.25 3.75
997 1 21.0 6.0 4.5
998 2 21.75 6.75 5.25
999 1 22.5 6.0 4.5
1000 2 23.25 6.75 5.25
1005 1 21.0 7.5 4.5
1006 2 21.75 8.25 5.25
1007 1 22.5 7.5 4.5
1008 2 23.25 8.25 5.25
977 1 18.0 9.0 3.0
978 2 18.75 9.75 3.75
979 1 19.5 9.0 3.0
980 2 20.25 9.75 3.75
985 1 18.0 10.5 3.0
986 2 18.75 11.25 3.75
987 1 19.5 10.5 3.0
988 2 20.25 11.25 3.75
1009 1 18.0 9.0 4.5
1010 2 18.75 9.75 5.25
1011 1 19.5 9.0 4.5
1012 2 20.25 9.75 5.25
1017 1 18.0 10.5 4.5
1018 2 18.75 11.25 5.25
1019 1 19.5 10.5 4.5
1020 2 20.25 11.25 5.25
981 1 21.0 9.0 3.0
982 2 21.75 9.75 3.75
983 1 22.5 9.0 3.0
984 2 23.25 9.75 3.75
989 1 21.0 10.5 3.0
990 2 21.75 11.25 3.75
991 1 22.5 10.5 3.0
992 2 23.25 11.25 3.75
1013 1 21.0 9.0 4.5
1014 2 21.75 9.75 5.25
1015 1 22.5 9.0 4.5
1016 2 23.25 9.75 5.25
1021 1 21.0 10.5 4.5
1022 2 21.75 11.25 5.25
1023 1 22.5 10.5 4.5
1024 2 23.25 11.25 5.25
1025 1 0.0 12.0 -4.9220408149e-19
1026 2 0.75 12.75 0.75
1027 1 1.5 12.0 0.0
1028 2 2.25 12.75 0.75
1033 1 0.0 13.5 -4.9220408149e-19
1034 2 0.75 14.25 0.75
1035 1 1.5 13.5 0.0
1036 2 2.25 14.25 0.75
1057 1 6.0578963875e-19 12.0 1.5
1058 2 0.75 12.75 2.25
1059 1 1.5 12.0 1.5
1060 2 2.25 12.75 2.25
1065 1 0.0 13.5 1.5
1066 2 0.75 14.25 2.25
1067 1 1.5 13.5 1.5
1068 2 2.25 14.25 2.25
1029 1 3.0 12.0 0.0
1030 2 3.75 12.75 0.75
1031 1 4.5 12.0 0.0
1032 2 5.25 12.75 0.75
1037 1 3.0 13.5 0.0
1038 2 3.75 14.25 0.75
1039 1 4.5 13.5 0.0
1040 2 5.25 14.25 0.75
1061 1 3.0 12.0 1.5
1062 2 3.75 12.75 2.25
1063 1 4.5 12.0 1.5
1064 2 5.25 12.75 2.25
1069 1 3.0 13.5 1.5
1070 2 3.75 14.25 2.25
1071 1 4.5 13.5 1.5
1072 2 5.25 14.25 2.25
1041 1 0.0 15.0 -4.9220408149e-19
1042 2 0.75 15.75 0.75
1043 1 1.5 15.0 0.0
1044 2 2.25 15.75 0.75
1049 1 0.0 16.5 -4.9220408149e-19
1050 2 0.75 17.25 0.75
1051 1 1.5 16.5 0.0
1052 2 2.25 17.25 0.75
1073 1 0.0 15.0 1.5
1074 2 0.75 15.75 2.25
1075 1 1.5 15.0 1.5
1076 2 2.25 15.75 2.25
1081 1 0.0 16.5 1.5
1082 2 0.75 17.25 2.25
1083 1 1.5 16.5 1.5
1084 2 2.25 17.25 2.25
1045 1 3.0 15.0 0.0
1046 2 3.75 15.75 0.75
1047 1 4.5 15.0 0.0
1048 2 5.25 15.75 0.75
1053 1 3.0 16.5 0.0
1054 2 3.75 17.25 0.75
1055 1 4.5 16.5 0.0
1056 2 5.25 17.25 0.75
1077 1 3.0 15.0 1.5
1078 2 3.75 15.75 2.25
1079 1 4.5 15.0 1.5
1080 2 5.25 15.75 2.25
1085 1 3.0 16.5 1.5
1086 2 3.75 17.25 2.25
1087 1 4.5 16.5 1.5
1088 2 5.25 17.25 2.25
1089 1 6.0578963875e-19 12.0 3.0
1090 2 0.75 12.75 3.75
1091 1 1.5 12.0 3.0
1092 2 2.25 12.75 3.75
1097 1 0.0 13.5 3.0
1098 2 0.75 14.25 3.75
1099 1 1.5 13.5 3.0
1100 2 2.25 14.25 3.75
1121 1 6.0578963875e-19 12.0 4.5
1122 2 0.75 12.75 5.25
1123 1 1.5 12.0 4.5
1124 2 2.25 12.75 5.25
1129 1 0.0 13.5 4.5
1130 2 0.75 14.25 5.25
1131 1 1.5 13.5 4.5
1132 2 2.25 14.25 5.25
1093 1 3.0 12.0 3.0
1094 2 3.75 12.75 3.75
1095 1 4.5 12.0 3.0
1096 2 5.25 12.75 3.75
1101 1 3.0 13.5 3.0
1102 2 3.75 14.25 3.75
1103 1 4.5 13.5 3.0
1104 2 5.25 14.25 3.75
1125 1 3.0 12.0 4.5
1126 2 3.75 12.75 5.25
1127 1 4.5 12.0 4.5
1128 2 5.25 12.75 5.25
1133 1 3.0 13.5 4.5
1134 2 3.75 14.25 5.25
1135 1 4.5 13.5 4.5
1136 2 5.25 14.25 5.25
1105 1 0.0 15.0 3.0
1106 2 0.75 15.75 3.75
1107 1 1.5 15.0 3.0
1108 2 2.25 15.75 3.75
1113 1 0.0 16.5 3.0
1114 2 0.75 17.25 3.75
1115 1 1.5 16.5 3.0
1116 2 2.25 17.25 3.75
1137 1 0.0 15.0 4.5
1138 2 0.75 15.75 5.25
1139 1 1.5 15.0 4.5
1140 2 2.25 15.75 5.25
1145 1 0.0 16.5 4.5
1146 2 0.75 17.25 5.25
1147 1 1.5 16.5 4.5
1148 2 2.25 17.25 5.25
1109 1 3.0 15.0 3.0
1110 2 3.75 15.75 3.75
1111 1 4.5 15.0 3.0
1112 2 5.25 15.75 3.75
1117 1 3.0 16.5 3.0
1118 2 3.75 17.25 3.75
1119 1 4.5 16.5 3.0
1120 2 5.25 17.25 3.75
1141 1 3.0 15.0 4.5
1142 2 3.75 15.75 5.25
1143 1 4.5 15.0 4.5
1144 2 5.25 15.75 5.25
1149 1 3.0 16.5 4.5
1150 2 3.75 17.25 5.25
1151 1 4.5 16.5 4.5
1152 2 5.25 17.25 5.25
1153 1 6.0 12.0 0.0
1154 2 6.75 12.75 0.75
1155 1 7.5 12.0 0.0
1156 2 8.25 12.75 0.75
1161 1 6.0 13.5 0.0
1162 2 6.75 14.25 0.75
1163 1 7.5 13.5 0.0
1164 2 8.25 14.25 0.75
1185 1 6.0 12.0 1.5
1186 2 6.75 12.75 2.25
1187 1 7.5 12.0 1.5
1188 2 8.25 12.75 2.25
1193 1 6.0 13.5 1.5
1194 2 6.75 14.25 2.25
1195 1 7.5 13.5 1.5
1196 2 8.25 14.25 2.25
1157 1 9.0 12.0 0.0
1158 2 9.75 12.75 0.75
1159 1 10.5 12.0 0.0
1160 2 11.25 12.75 0.75
1165 1 9.0 13.5 0.0
1166 2 9.75 14.25 0.75
1167 1 10.5 13.5 0.0
1168 2 11.25 14.25 0.75
1189 1 9.0 12.0 1.5
1190 2 9.75 12.75 2.25
1191 1 10.5 12.0 1.5
1192 2 11.25 12.75 2.25
1197 1 9.0 13.5 1.5
1198 2 9.75 14.25 2.25
1199 1 10.5 13.5 1.5
1200 2 11.25 14.25 2.25
1169 1 6.0 15.0 0.0
1170 2 6.75 15.75 0.75
1171 1 7.5 15.0 0.0
1172 2 8.25 15.75 0.75
1177 1 6.0 16.5 0.0
1178 2 6.75 17.25 0.75
1179 1 7.5 16.5 0.0
1180 2 8.25 17.25 0.75
1201 1 6.0 15.0 1.5
1202 2 6.75 15.75 2.25
1203 1 7.5 15.0 1.5
1204 2 8.25 15.75 2.25
1209 1 6.0 16.5 1.5
1210 2 6.75 17.25 2.25
1211 1 7.5 16.5 1.5
1212 2 8.25 17.25 2.25
1173 1 9.0 15.0 0.0
1174 2 9.75 15.75 0.75
1175 1 10.5 15.0 0.0
1176 2 11.25 15.75 0.75
1181 1 9.0 16.5 0.0
1182 2 9.75 17.25 0.75
1183 1 10.5 16.5 0.0
1184 2 11.25 17.25 0.75
1205 1 9.0 15.0 1.5
1206 2 9.75 15.75 2.25
1207 1 10.5 15.0 1.5
1208 2 11.25 15.75 2.25
1213 1 9.0 16.5 1.5
1214 2 9.75 17.25 2.25
1215 1 10.5 16.5 1.5
1216 2 11.25 17.25 2.25
1217 1 6.0 12.0 3.0
1218 2 6.75 12.75 3.75
1219 1 7.5 12.0 3.0
1220 2 8.25 12.75 3.75
1225 1 6.0 13.5 3.0
1226 2 6.75 14.25 3.75
1227 1 7.5 13.5 3.0
1228 2 8.25 14.25 3.75
1249 1 6.0 12.0 4.5
1250 2 6.75 12.75 5.25
1251 1 7.5 12.0 4.5
1252 2 8.25 12.75 5.25
1257 1 6.0 13.5 4.5
1258 2 6.75 14.25 5.25
1259 1 7.5 13.5 4.5
1260 2 8.25 14.25 5.25
1221 1 9.0 12.0 3.0
1222 2 9.75 12.75 3.75
1223 1 10.5 12.0 3.0
1224 2 11.25 12.75 3.75
1229 1 9.0 13.5 3.0
1230 2 9.75 14.25 3.75
1231 1 10.5 13.5 3.0
1232 2 11.25 14.25 3.75
1253 1 9.0 12.0 4.5
1254 2 9.75 12.75 5.25
1255 1 10.5 12.0 4.5
1256 2 11.25 12.75 5.25
1261 1 9.0 13.5 4.5
1262 2 9.75 14.25 5.25
1263 1 10.5 13.5 4.5
1264 2 11.25 14.25 5.25
1233 1 6.0 15.0 3.0
1234 2 6.75 15.75 3.75
1235 1 7.5 15.0 3.0
1236 2 8.25 15.75 3.75
1241 1 6.0 16.5 3.0
1242 2 6.75 17.25 3.75
1243 1 7.5 16.5 3.0
1244 2 8.25 17.25 3.75
1265 1 6.0 15.0 4.5
1266 2 6.75 15.75 5.25
1267 1 7.5 15.0 4.5
1268 2 8.25 15.75 5.25
1273 1 6.0 16.5 4.5
1274 2 6.75 17.25 5.25
1275 1 7.5 16.5 4.5
1276 2 8.25 17.25 5.25
1237 1 9.0 15.0 3.0
1238 2 9.75 15.75 3.75
1239 1 10.5 15.0 3.0
1240 2 11.25 15.75 3.75
1245 1 9.0 16.5 3.0
1246 2 9.75 17.25 3.75
1247 1 10.5 16.5 3.0
1248 2 11.25 17.25 3.75
1269 1 9.0 15.0 4.5
1270 2 9.75 15.75 5.25
1271 1 10.5 15.0 4.5
1272 2 11.25 15.75 5.25
1277 1 9.0 16.5 4.5
1278 2 9.75 17.25 5.25
1279 1 10.5 16.5 4.5
1280 2 11.25 17.25 5.25
1281 1 12.0 12.0 0.0
1282 2 12.75 12.75 0.75
1283 1 13.5 12.0 0.0
1284 2 14.25 12.75 0.75
1289 1 12.0 13.5 0.0
1290 2 12.75 14.25 0.75
1291 1 13.5 13.5 0.0
1292 2 14.25 14.25 0.75
1313 1 12.0 12.0 1.5
1314 2 12.75 12.75 2.25
1315 1 13.5 12.0 1.5
1316 2 14.25 12.75 2.25
1321 1 12.0 13.5 1.5
1322 2 12.75 14.25 2.25
1323 1 13.5 13.5 1.5
1324 2 14.25 14.25 2.25
1285 1 15.0 12.0 0.0
1286 2 15.75 12.75 0.75
1287 1 16.5 12.0 0.0
1288 2 17.25 12.75 0.75
1293 1 15.0 13.5 0.0
1294 2 15.75 14.25 0.75
1295 1 16.5 13.5 0.0
1296 2 17.25 14.25 0.75
1317 1 15.0 12.0 1.5
1318 2 15.75 12.75 2.25
1319 1 16.5 12.0 1.5
1320 2 17.25 12.75 2.25
1325 1 15.0 13.5 1.5
1326 2 15.75 14.25 2.25
1327 1 16.5 13.5 1.5
1328 2 17.25 14.25 2.25
1297 1 12.0 15.0 0.0
1298 2 12.75 15.75 0.75
1299 1 13.5 15.0 0.0
1300 2 14.25 15.75 0.75
1305 1 12.0 16.5 0.0
1306 2 12.75 17.25 0.75
1307 1 13.5 16.5 0.0
1308 2 14.25 17.25 0.75
1329 1 12.0 15.0 1.5
1330 2 12.75 15.75 2.25
1331 1 13.5 15.0 1.5
1332 2 14.25 15.75 2.25
1337 1 12.0 16.5 1.5
1338 2 12.75 17.25 2.25
1339 1 13.5 16.5 1.5
1340 2 14.25 17.25 2.25
1301 1 15.0 15.0 0.0
1302 2 15.75 15.75 0.75
1303 1 16.5 15.0 0.0
1304 2 17.25 15.75 0.75
1309 1 15.0 16.5 0.0
1310 2 15.75 17.25 0.75
1311 1 16.5 16.5 0.0
1312 2 17.25 17.25 0.75
1333 1 15.0 15.0 1.5
1334 2 15.75 15.75 2.25
1335 1 16.5 15.0 1.5
1336 2 17.25 15.75 2.25
1341 1 15.0 16.5 1.5
1342 2 15.75 17.25 2.25
1343 1 16.5 16.5 1.5
1344 2 17.25 17.25 2.25
1345 1 12.0 12.0 3.0
1346 2 12.75 12.75 3.75
1347 1 13.5 12.0 3.0
1348 2 14.25 12.75 3.75
1353 1 12.0 13.5 3.0
1354 2 12.75 14.25 3.75
1355 1 13.5 13.5 3.0
1356 2 14.25 14.25 3.75
1377 1 12.0 12.0 4.5
1378 2 12.75 12.75 5.25
1379 1 13.5 12.0 4.5
1380 2 14.25 12.75 5.25
1385 1 12.0 13.5 4.5
1386 2 12.75 14.25 5.25
1387 1 13.5 13.5 4.5
1388 2 14.25 14.25 5.25
1349 1 15.0 12.0 3.0
1350 2 15.75 12.75 3.75
1351 1 16.5 12.0 3.0
1352 2 17.25 12.75 3.75
1357 1 15.0 13.5 3.0
1358 2 15.75 14.25 3.75
1359 1 16.5 13.5 3.0
1360 2 17.25 14.25 3.75
1381 1 15.0 12.0 4.5
1382 2 15.75 12.75 5.25
1383 1 16.5 12.0 4.5
1384 2 17.25 12.75 5.25
1389 1 15.0 13.5 4.5
1390 2 15.75 14.25 5.25
1391 1 16.5 13.5 4.5
1392 2 17.25 14.25 5.25
1361 1 12.0 15.0 3.0
1362 2 12.75 15.75 3.75
1363 1 13.5 15.0 3.0
1364 2 14.25 15.75 3.75
1369 1 12.0 16.5 3.0
1370 2 12.75 17.25 3.75
1371 1 13.5 16.5 3.0
1372 2 14.25 17.25 3.75
1393 1 12.0 15.0 4.5
1394 2 12.75 15.75 5.25
1395 1 13.5 15.0 4.5
1396 2 14.25 15.75 5.25
1401 1 12.0 16.5 4.5
1402 2 12.75 17.25 5.25
1403 1 13.5 16.5 4.5
1404 2 14.25 17.25 5.25
1365 1 15.0 15.0 3.0
1366 2 15.75 15.75 3.75
1367 1 16.5 15.0 3.0
1368 2 17.25 15.75 3.75
1373 1 15.0 16.5 3.0
1374 2 15.75 17.25 3.75
1375 1 16.5 16.5 3.0
1376 2 17.25 17.25 3.75
1397 1 15.0 15.0 4.5
1398 2 15.75 15.75 5.25
1399 1 16.5 15.0 4.5
1400 2 17.25 15.75 5.25
1405 1 15.0 16.5 4.5
1406 2 15.75 17.25 5.25
1407 1 16.5 16.5 4.5
1408 2 17.25 17.25 5.25
1409 1 18.0 12.0 0.0
1410 2 18.75 12.75 0.75
1411 1 19.5 12.0 0.0
1412 2 20.25 12.75 0.75
1417 1 18.0 13.5 0.0
1418 2 18.75 14.25 0.75
1419 1 19.5 13.5 0.0
1420 2 20.25 14.25 0.75
1441 1 18.0 12.0 1.5
1442 2 18.75 12.75 2.25
1443 1 19.5 12.0 1.5
1444 2 20.25 12.75 2.25
1449 1 18.0 13.5 1.5