16000
Lattice="6.600000000000e+01 0.000000000000e+00 0.000000000000e+00 0.000000000000e+00 6.600000000000e+01 0.000000000000e+00 0.000000000000e+00 0.000000000000e+00 6.600000000000e+01" Properties=species:S:1:pos:R:3:force:R:3:id:I:1 Time=0.07
XX        0.0000000000e+00  0.0000000000e+00  0.0000000000e+00  0.0000000000e+00  0.0000000000e+00  0.0000000000e+00          1
XX        1.6500000000e+00  1.6500000000e+00  1.6500000000e+00  0.0000000000e+00  0.0000000000e+00  0.0000000000e+00          2
XX        3.3000000000e+00  0.0000000000e+00  0.0000000000e+00  0.0000000000e+00  0.0000000000e+00  0.0000000000e+00          3
XX        4.9500000000e+00  1.6500000000e+00  1.6500000000e+00  0.0000000000e+00  0.0000000000e+00  0.0000000000e+00          4
XX        6.6000000000e+00  0.0000000000e+00  0.0000000000e+00  0.0000000000e+00  0.0000000000e+00  0.0000000000e+00          5
XX        8.2500000000e+00  1.6500000000e+00  1.6500000000e+00  0.0000000000e+00  0.0000000000e+00  0.0000000000e+00          6
XX        9.9000000000e+00  0.0000000000e+00  0.0000000000e+00  0.0000000000e+00  0.0000000000e+00  0.0000000000e+00          7
XX        1.1550000000e+01  1.6500000000e+00  1.6500000000e+00  0.0000000000e+00  0.0000000000e+00  0.0000000000e+00          8
XX        1.3200000000e+01  0.0000000000e+00  0.0000000000e+00  0.0000000000e+00  0.0000000000e+00  0.0000000000e+00          9
XX        1.4850000000e+01  1.6500000000e+00  1.6500000000e+00  0.0000000000e+00  0.0000000000e+00  0.0000000000e+00         10
XX        1.6500000000e+01  0.0000000000e+00  0.0000000000e+00  0.0000000000e+00  0.0000000000e+00  0.0000000000e+00         11
XX        1.8150000000e+01  1.6500000000e+00  1.6500000000e+00  0.0000000000e+00  0.0000000000e+00  0.0000000000e+00         12
XX        1.9800000000e+01  0.0000000000e+00  0.0000000000e+00  0.0000000000e+00  0.0000000000e+00  0.0000000000e+00         13
XX        2.1450000000e+01  1.6500000000e+00  1.6500000000e+00  0.0000000000e+00  0.0000000000e+00  0.0000000000e+00         14
XX        2.3100000000e+01  0.0000000000e+00  0.0000000000e+00  0.0000000000e+00  0.0000000000e+00  0.0000000000e+00         15
XX        2.4750000000e+01  1.6500000000e+00  1.6500000000e+00  0.0000000000e+00  0.0000000000e+00  0.0000000000e+00         16
XX        2.6400000000e+01  0.0000000000e+00  0.0000000000e+00  0.0000000000e+00  0.0000000000e+00  0.0000000000e+00         17
XX        2.8050000000e+01  1.6500000000e+00  1.6500000000e+00  0.0000000000e+00  0.0000000000e+00  0.0000000000e+00         18
XX        2.9700000000e+01  0.0000000000e+00  0.0000000000e+00  0.0000000000e+00  0.0000000000e+00  0.0000000000e+00         19
XX        3.1350000000e+01  1.6500000000e+00  1.6500000000e+00  0.0000000000e+00  0.0000000000e+00  0.0000000000e+00         20
XX        3.3000000000e+01  0.0000000000e+00  0.0000000000e+00  0.0000000000e+00  0.0000000000e+00  0.0000000000e+00         21
XX        3.4650000000e+01  1.6500000000e+00  1.6500000000e+00  0.0000000000e+00  0.0000000000e+00  0.0000000000e+00         22
XX        3.6300000000e+01  0.0000000000e+00  0.0000000000e+00  0.0000000000e+00  0.0000000000e+00  0.0000000000e+00         23
XX        3.7950000000e+01  1.6500000000e+00  1.6500000000e+00  0.0000000000e+00  0.0000000000e+00  0.0000000000e+00         24
XX        3.9600000000e+01  0.0000000000e+00  0.0000000000e+00  0.0000000000e+00  0.0000000000e+00  0.0000000000e+00         25
XX        4.1250000000e+01  1.6500000000e+00  1.6500000000e+00  0.0000000000e+00  0.0000000000e+00  0.0000000000e+00         26
XX        4.2900000000e+01  0.0000000000e+00  0.0000000000e+00  0.0000000000e+00  0.0000000000e+00  0.0000000000e+00         27
XX        4.4550000000e+01  1.6500000000e+00  1.6500000000e+00  0.0000000000e+00  0.0000000000e+00  0.0000000000e+00         28
XX        4.6200000000e+01  0.0000000000e+00  0.0000000000e+00  0.0000000000e+00  0.0000000000e+00  0.0000000000e+00         29
XX        4.7850000000e+01  1.6500000000e+00  1.6500000000e+00  0.0000000000e+00  0.0000000000e+00  0.0000000000e+00         30
XX        4.9500000000e+01  0.0000000000e+00  0.0000000000e+00  0.0000000000e+00  0.0000000000e+00  0.0000000000e+00         31
XX        5.1150000000e+01  1.6500000000e+00  1.6500000000e+00  0.0000000000e+00  0.0000000000e+00  0.0000000000e+00         32
XX        5.2800000000e+01  0.0000000000e+00  0.0000000000e+00  0.0000000000e+00  0.0000000000e+00  0.0000000000e+00         33
XX        5.4450000000e+01  1.6500000000e+00  1.6500000000e+00  0.0000000000e+00  0.0000000000e+00  0.0000000000e+00         34
XX        5.6100000000e+01  0.0000000000e+00  0.0000000000e+00  0.0000000000e+00  0.0000000000e+00  0.0000000000e+00         35
XX        5.7750000000e+01  1.6500000000e+00  1.6500000000e+00  0.0000000000e+00  0.0000000000e+00  0.0000000000e+00         36
XX        5.9400000000e+01  0.0000000000e+00  0.0000000000e+00  0.0000000000e+00  0.0000000000e+00  0.0000000000e+00         37
XX        6.1050000000e+01  1.6500000000e+00  1.6500000000e+00  0.0000000000e+00  0.0000000000e+00  0.0000000000e+00         38
XX        6.2700000000e+01  0.0000000000e+00  0.0000000000e+00  0.0000000000e+00  0.0000000000e+00  0.0000000000e+00         39
XX        6.4350000000e+01  1.6500000000e+00  1.6500000000e+00  0.0000000000e+00  0.0000000000e+00  0.0000000000e+00         40
XX        0.0000000000e+00  3.3000000000e+00  0.0000000000e+00  0.0000000000e+00  0.0000000000e+00  0.0000000000e+00         41
XX        1.6500000000e+00  4.9500000000e+00  1.6500000000e+00  0.0000000000e+00  0.0000000000e+00  0.0000000000e+00         42
XX        3.3000000000e+00  3.3000000000e+00  0.0000000000e+00  0.0000000000e+00  0.0000000000e+00  0.0000000000e+00         43
XX        4.9500000000e+00  4.9500000000e+00  1.6500000000e+00  0.0000000000e+00  0.0000000000e+00  0.0000000000e+00         44
XX        6.6000000000e+00  3.3000000000e+00  0.0000000000e+00  0.0000000000e+00  0.0000000000e+00  0.0000000000e+00         45
XX        8.2500000000e+00  4.9500000000e+00  1.6500000000e+00  0.0000000000e+00  0.0000000000e+00  0.0000000000e+00         46
XX        9.9000000000e+00  3.3000000000e+00  0.0000000000e+00  0.0000000000e+00  0.0000000000e+00  0.0000000000e+00         47
XX        1.1550000000e+01  4.9500000000e+00  1.6500000000e+00  0.0000000000e+00  0.0000000000e+00  0.0000000000e+00         48
XX        1.3200000000e+01  3.3000000000e+00  0.0000000000e+00  0.0000000000e+00  0.0000000000e+00  0.0000000000e+00         49
XX        1.4850000000e+01  4.9500000000e+00  1.6500000000e+00  0.0000000000e+00  0.0000000000e+00  0.0000000000e+00         50
XX        1.6500000000e+01  3.3000000000e+00  0.0000000000e+00  0.0000000000e+00  0.0000000000e+00  0.0000000000e+00         51
XX        1.8150000000e+01  4.9500000000e+00  1.6500000000e+00  0.0000000000e+00  0.0000000000e+00  0.0000000000e+00         52
XX        1.9800000000e+01  3.3000000000e+00  0.0000000000e+00  0.0000000000e+00  0.0000000000e+00  0.0000000000e+00         53
XX        2.1450000000e+01  4.9500000000e+00  1.6500000000e+00  0.0000000000e+00  0.0000000000e+00  0.0000000000e+00         54
XX        2.3100000000e+01  3.3000000000e+00  0.0000000000e+00  0.0000000000e+00  0.0000000000e+00  0.0000000000e+00         55
XX        2.4750000000e+01  4.9500000000e+00  1.6500000000e+00  0.0000000000e+00  0.0000000000e+00  0.0000000000e+00         56
XX        2.6400000000e+01  3.3000000000e+00  0.0000000000e+00  0.0000000000e+00  0.0000000000e+00  0.0000000000e+00         57
XX        2.8050000000e+01  4.9500000000e+00  1.6500000000e+00  0.0000000000e+00  0.0000000000e+00  0.0000000000e+00         58
XX        2.9700000000e+01  3.3000000000e+00  0.0000000000e+00  0.0000000000e+00  0.0000000000e+00  0.0000000000e+00         59
XX        3.1350000000e+01  4.9500000000e+00  1.6500000000e+00  0.0000000000e+00  0.0000000000e+00  0.0000000000e+00         60
XX        3.3000000000e+01  3.3000000000e+00  0.0000000000e+00  0.0000000000e+00  0.0000000000e+00  0.0000000000e+00         61
XX        3.4650000000e+01  4.9500000000e+00  1.6500000000e+00  0.0000000000e+00  0.0000000000e+00  0.0000000000e+00         62
XX        3.6300000000e+01  3.3000000000e+00  0.0000000000e+00  0.0000000000e+00  0.0000000000e+00  0.0000000000e+00         63
XX        3.7950000000e+01  4.9500000000e+00  1.6500000000e+00  0.0000000000e+00  0.0000000000e+00  0.0000000000e+00         64
XX        3.9600000000e+01  3.3000000000e+00  0.0000000000e+00  0.0000000000e+00  0.0000000000e+00  0.0000000000e+00         65
XX        4.1250000000e+01  4.9500000000e+00  1.6500000000e+00  0.0000000000e+00  0.0000000000e+00  0.0000000000e+00         66
XX        4.2900000000e+01  3.3000000000e+00  0.0000000000e+00  0.0000000000e+00  0.0000000000e+00  0.0000000000e+00         67
XX        4.4550000000e+01  4.9500000000e+00  1.6500000000e+00  0.0000000000e+00  0.0000000000e+00  0.0000000000e+00         68
XX        4.6200000000e+01  3.3000000000e+00  0.0000000000e+00  0.0000000000e+00  0.0000000000e+00  0.0000000000e+00         69
XX        4.7850000000e+01  4.9500000000e+00  1.6500000000e+00  0.0000000000e+00  0.0000000000e+00  0.0000000000e+00         70
XX        4.9500000000e+01  3.3000000000e+00  0.0000000000e+00  0.0000000000e+00  0.0000000000e+00  0.0000000000e+00         71
XX        5.1150000000e+01  4.9500000000e+00  1.6500000000e+00  0.0000000000e+00  0.0000000000e+00  0.0000000000e+00         72
XX        5.2800000000e+01  3.3000000000e+00  0.0000000000e+00  0.0000000000e+00  0.0000000000e+00  0.0000000000e+00         73
XX        5.4450000000e+01  4.9500000000e+00  1.6500000000e+00  0.0000000000e+00  0.0000000000e+00  0.0000000000e+00         74
XX        5.6100000000e+01  3.3000000000e+00  0.0000000000e+00  0.0000000000e+00  0.0000000000e+00  0.0000000000e+00         75
XX        5.7750000000e+01  4.9500000000e+00  1.6500000000e+00  0.0000000000e+00  0.0000000000e+00  0.0000000000e+00         76
XX        5.9400000000e+01  3.3000000000e+00  0.0000000000e+00  0.0000000000e+00  0.0000000000e+00  0.0000000000e+00         77
XX        6.1050000000e+01  4.9500000000e+00  1.6500000000e+00  0.0000000000e+00  0.0000000000e+00  0.0000000000e+00         78
XX        6.2700000000e+01  3.3000000000e+00  0.0000000000e+00  0.0000000000e+00  0.0000000000e+00  0.0000000000e+00         79
XX        6.4350000000e+01  4.9500000000e+00  1.6500000000e+00  0.0000000000e+00  0.0000000000e+00  0.0000000000e+00         80
XX        0.0000000000e+00  9.9000000000e+00  0.0000000000e+00  0.0000000000e+00  0.0000000000e+00  0.0000000000e+00         81
XX        0.0000000000e+00  6.6000000000e+00  0.0000000000e+00  0.0000000000e+00  0.0000000000e+00  0.0000000000e+00         82
XX        1.6500000000e+00  8.2500000000e+00  1.6500000000e+00  0.0000000000e+00  0.0000000000e+00  0.0000000000e+00         83
XX        3.3000000000e+00  9.9000000000e+00  0.0000000000e+00  0.0000000000e+00  0.0000000000e+00  0.0000000000e+00         84
XX        3.3000000000e+00  6.6000000000e+00  0.0000000000e+00  0.0000000000e+00  0.0000000000e+00  0.0000000000e+00         85
XX        4.9500000000e+00  8.2500000000e+00  1.6500000000e+00  0.0000000000e+00  0.0000000000e+00  0.0000000000e+00         86
XX        6.6000000000e+00  9.9000000000e+00  0.0000000000e+00  0.0000000000e+00  0.0000000000e+00  0.0000000000e+00         87
XX        9.9000000000e+00  9.9000000000e+00  0.0000000000e+00  0.0000000000e+00  0.0000000000e+00  0.0000000000e+00         88
XX        6.6000000000e+00  6.6000000000e+00  0.0000000000e+00  0.0000000000e+00  0.0000000000e+00  0.0000000000e+00         89
XX        8.2500000000e+00  8.2500000000e+00  1.6500000000e+00  0.0000000000e+00  0.0000000000e+00  0.0000000000e+00         90
XX        9.9000000000e+00  6.6000000000e+00  0.0000000000e+00  0.0000000000e+00  0.0000000000e+00  0.0000000000e+00         91
XX        1.1550000000e+01  8.2500000000e+00  1.6500000000e+00  0.0000000000e+00  0.0000000000e+00  0.0000000000e+00         92
XX        1.3200000000e+01  9.9000000000e+00  0.0000000000e+00  0.0000000000e+00  0.0000000000e+00  0.0000000000e+00         93
XX        1.3200000000e+01  6.6000000000e+00  0.0000000000e+00  0.0000000000e+00  0.0000000000e+00  0.0000000000e+00         94
XX        1.4850000000e+01  8.2500000000e+00  1.6500000000e+00  0.0000000000e+00  0.0000000000e+00  0.0000000000e+00         95
XX        1.6500000000e+01  9.9000000000e+00  0.0000000000e+00  0.0000000000e+00  0.0000000000e+00  0.0000000000e+00         96
XX        1.9800000000e+01  9.9000000000e+00  0.0000000000e+00  0.0000000000e+00  0.0000000000e+00  0.0000000000e+00         97
XX        1.6500000000e+01  6.6000000000e+00  0.0000000000e+00  0.0000000000e+00  0.0000000000e+00  0.0000000000e+00         98
XX        1.8150000000e+01  8.2500000000e+00  1.6500000000e+00  0.0000000000e+00  0.0000000000e+00  0.0000000000e+00         99
XX        1.9800000000e+01  6.6000000000e+00  0.0000000000e+00  0.0000000000e+00  0.0000000000e+00  0.0000000000e+00        100
XX        2.1450000000e+01  8.2500000000e+00  1.6500000000e+00  0.0000000000e+00  0.0000000000e+00  0.0000000000e+00        101
XX        2.3100000000e+01  9.9000000000e+00  0.0000000000e+00  0.0000000000e+00  0.0000000000e+00  0.0000000000e+00        102
XX        2.3100000000e+01  6.6000000000e+00  0.0000000000e+00  0.0000000000e+00  0.0000000000e+00  0.0000000000e+00        103
XX        2.4750000000e+01  8.2500000000e+00  1.6500000000e+00  0.0000000000e+00  0.0000000000e+00  0.0000000000e+00        104
XX        2.6400000000e+01  9.9000000000e+00  0.0000000000e+00  0.0000000000e+00  0.0000000000e+00  0.0000000000e+00        105
XX        2.6400000000e+01  6.6000000000e+00  0.0000000000e+00  0.0000000000e+00  0.0000000000e+00  0.0000000000e+00        106
XX        2.8050000000e+01  8.2500000000e+00  1.6500000000e+00  0.0000000000e+00  0.0000000000e+00  0.0000000000e+00        107
XX        2.9700000000e+01  9.9000000000e+00  0.0000000000e+00  0.0000000000e+00  0.0000000000e+00  0.0000000000e+00        108
XX        2.9700000000e+01  6.6000000000e+00  0.0000000000e+00  0.0000000000e+00  0.0000000000e+00  0.0000000000e+00        109
XX        3.1350000000e+01  8.2500000000e+00  1.6500000000e+00  0.0000000000e+00  0.0000000000e+00  0.0000000000e+00        110
XX        3.3000000000e+01  6.6000000000e+00  0.0000000000e+00  0.0000000000e+00  0.0000000000e+00  0.0000000000e+00        111
XX        3.4650000000e+01  8.2500000000e+00  1.6500000000e+00  0.0000000000e+00  0.0000000000e+00  0.0000000000e+00        112
XX        3.3000000000e+01  9.9000000000e+00  0.0000000000e+00  0.0000000000e+00  0.0000000000e+00  0.0000000000e+00        113
XX        3.6300000000e+01  6.6000000000e+00  0.0000000000e+00  0.0000000000e+00  0.0000000000e+00  0.0000000000e+00        114
XX        3.7950000000e+01  8.2500000000e+00  1.6500000000e+00  0.0000000000e+00  0.0000000000e+00  0.0000000000e+00        115
XX        3.9600000000e+01  6.6000000000e+00  0.0000000000e+00  0.0000000000e+00  0.0000000000e+00  0.0000000000e+00        116
XX        3.6300000000e+01  9.9000000000e+00  0.0000000000e+00  0.0000000000e+00  0.0000000000e+00  0.0000000000e+00        117
XX        3.9600000000e+01  9.9000000000e+00  0.0000000000e+00  0.0000000000e+00  0.0000000000e+00  0.0000000000e+00        118
XX        4.1250000000e+01  8.2500000000e+00  1.6500000000e+00  0.0000000000e+00  0.0000000000e+00  0.0000000000e+00        119
XX        4.2900000000e+01  6.6000000000e+00  0.0000000000e+00  0.0000000000e+00  0.0000000000e+00  0.0000000000e+00        120
XX        4.4550000000e+01  8.2500000000e+00  1.6500000000e+00  0.0000000000e+00  0.0000000000e+00  0.0000000000e+00        121
XX        4.2900000000e+01  9.9000000000e+00  0.0000000000e+00  0.0000000000e+00  0.0000000000e+00  0.0000000000e+00        122
XX        4.6200000000e+01  6.6000000000e+00  0.0000000000e+00  0.0000000000e+00  0.0000000000e+00  0.0000000000e+00        123
XX        4.7850000000e+01  8.2500000000e+00  1.6500000000e+00  0.0000000000e+00  0.0000000000e+00  0.0000000000e+00        124
XX        4.6200000000e+01  9.9000000000e+00  0.0000000000e+00  0.0000000000e+00  0.0000000000e+00  0.0000000000e+00        125
XX        4.9500000000e+01  6.6000000000e+00  0.0000000000e+00  0.0000000000e+00  0.0000000000e+00  0.0000000000e+00        126
XX        5.1150000000e+01  8.2500000000e+00  1.6500000000e+00  0.0000000000e+00  0.0000000000e+00  0.0000000000e+00        127
XX        4.9500000000e+01  9.9000000000e+00  0.0000000000e+00  0.0000000000e+00  0.0000000000e+00  0.0000000000e+00        128
XX        5.2800000000e+01  6.6000000000e+00  0.0000000000e+00  0.0000000000e+00  0.0000000000e+00  0.0000000000e+00        129
XX        5.4450000000e+01  8.2500000000e+00  1.6500000000e+00  0.0000000000e+00  0.0000000000e+00  0.0000000000e+00        130
XX        5.2800000000e+01  9.9000000000e+00  0.0000000000e+00  0.0000000000e+00  0.0000000000e+00  0.0000000000e+00        131
XX        5.6100000000e+01  6.6000000000e+00  0.0000000000e+00  0.0000000000e+00  0.0000000000e+00  0.0000000000e+00        132
XX        5.7750000000e+01  8.2500000000e+00  1.6500000000e+00  0.0000000000e+00  0.0000000000e+00  0.0000000000e+00        133
XX        5.6100000000e+01  9.9000000000e+00  0.0000000000e+00  0.0000000000e+00  0.0000000000e+00  0.0000000000e+00        134
XX        5.9400000000e+01  6.6000000000e+00  0.0000000000e+00  0.0000000000e+00  0.0000000000e+00  0.0000000000e+00        135
XX        6.1050000000e+01  8.2500000000e+00  1.6500000000e+00  0.0000000000e+00  0.0000000000e+00  0.0000000000e+00        136
XX        5.9400000000e+01  9.9000000000e+00  0.0000000000e+00  0.0000000000e+00  0.0000000000e+00  0.0000000000e+00        137
XX        6.2700000000e+01  6.6000000000e+00  0.0000000000e+00  0.0000000000e+00  0.0000000000e+00  0.0000000000e+00        138
XX        6.4350000000e+01  8.2500000000e+00  1.6500000000e+00  0.0000000000e+00  0.0000000000e+00  0.0000000000e+00        139
XX        6.2700000000e+01  9.9000000000e+00  0.0000000000e+00  0.0000000000e+00  0.0000000000e+00  0.0000000000e+00        140
XX        1.6500000000e+00  1.1550000000e+01  1.6500000000e+00  0.0000000000e+00  0.0000000000e+00  0.0000000000e+00        141
XX        4.9500000000e+00  1.1550000000e+01  1.6500000000e+00  0.0000000000e+00  0.0000000000e+00  0.0000000000e+00        142
XX        8.2500000000e+00  1.1550000000e+01  1.6500000000e+00  0.0000000000e+00  0.0000000000e+00  0.0000000000e+00        143
XX        1.1550000000e+01  1.1550000000e+01  1.6500000000e+00  0.0000000000e+00  0.0000000000e+00  0.0000000000e+00        144
XX        1.4850000000e+01  1.1550000000e+01  1.6500000000e+00  0.0000000000e+00  0.0000000000e+00  0.0000000000e+00        145
XX        1.8150000000e+01  1.1550000000e+01  1.6500000000e+00  0.0000000000e+00  0.0000000000e+00  0.0000000000e+00        146
XX        2.1450000000e+01  1.1550000000e+01  1.6500000000e+00  0.0000000000e+00  0.0000000000e+00  0.0000000000e+00        147
XX        2.4750000000e+01  1.1550000000e+01  1.6500000000e+00  0.0000000000e+00  0.0000000000e+00  0.0000000000e+00        148
XX        2.8050000000e+01  1.1550000000e+01  1.6500000000e+00  0.0000000000e+00  0.0000000000e+00  0.0000000000e+00        149
XX        3.1350000000e+01  1.1550000000e+01  1.6500000000e+00  0.0000000000e+00  0.0000000000e+00  0.0000000000e+00        150
XX        3.4650000000e+01  1.1550000000e+01  1.6500000000e+00  0.0000000000e+00  0.0000000000e+00  0.0000000000e+00        151
XX        3.7950000000e+01  1.1550000000e+01  1.6500000000e+00  0.0000000000e+00  0.0000000000e+00  0.0000000000e+00        152
XX        4.1250000000e+01  1.1550000000e+01  1.6500000000e+00  0.0000000000e+00  0.0000000000e+00  0.0000000000e+00        153
XX        4.4550000000e+01  1.1550000000e+01  1.6500000000e+00  0.0000000000e+00  0.0000000000e+00  0.0000000000e+00        154
XX        4.7850000000e+01  1.1550000000e+01  1.6500000000e+00  0.0000000000e+00  0.0000000000e+00  0.0000000000e+00        155
XX        5.1150000000e+01  1.1550000000e+01  1.6500000000e+00  0.0000000000e+00  0.0000000000e+00  0.0000000000e+00        156
XX        5.4450000000e+01  1.1550000000e+01  1.6500000000e+00  0.0000000000e+00  0.0000000000e+00  0.0000000000e+00        157
XX        5.7750000000e+01  1.1550000000e+01  1.6500000000e+00  0.0000000000e+00  0.0000000000e+00  0.0000000000e+00        158
XX        6.1050000000e+01  1.1550000000e+01  1.6500000000e+00  0.0000000000e+00  0.0000000000e+00  0.0000000000e+00        159
XX        6.4350000000e+01  1.1550000000e+01  1.6500000000e+00  0.0000000000e+00  0.0000000000e+00  0.0000000000e+00        160
XX        0.0000000000e+00  1.3200000000e+01  0.0000000000e+00  0.0000000000e+00  0.0000000000e+00  0.0000000000e+00        161
XX        1.6500000000e+00  1.4850000000e+01  1.6500000000e+00  0.0000000000e+00  0.0000000000e+00  0.0000000000e+00        162
XX        3.3000000000e+00  1.3200000000e+01  0.0000000000e+00  0.0000000000e+00  0.0000000000e+00  0.0000000000e+00        163
XX        4.9500000000e+00  1.4850000000e+01  1.6500000000e+00  0.0000000000e+00  0.0000000000e+00  0.0000000000e+00        164
XX        6.6000000000e+00  1.3200000000e+01  0.0000000000e+00  0.0000000000e+00  0.0000000000e+00  0.0000000000e+00        165
XX        8.2500000000e+00  1.4850000000e+01  1.6500000000e+00  0.0000000000e+00  0.0000000000e+00  0.0000000000e+00        166
XX        9.9000000000e+00  1.3200000000e+01  0.0000000000e+00  0.0000000000e+00  0.0000000000e+00  0.0000000000e+00        167
XX        1.1550000000e+01  1.4850000000e+01  1.6500000000e+00  0.0000000000e+00  0.0000000000e+00  0.0000000000e+00        168
XX        1.3200000000e+01  1.3200000000e+01  0.0000000000e+00  0.0000000000e+00  0.0000000000e+00  0.0000000000e+00        169
XX        1.4850000000e+01  1.4850000000e+01  1.6500000000e+00  0.0000000000e+00  0.0000000000e+00  0.0000000000e+00        170
XX        1.6500000000e+01  1.3200000000e+01  0.0000000000e+00  0.0000000000e+00  0.0000000000e+00  0.0000000000e+00        171
XX        1.8150000000e+01  1.4850000000e+01  1.6500000000e+00  0.0000000000e+00  0.0000000000e+00  0.0000000000e+00        172
XX        1.9800000000e+01  1.3200000000e+01  0.0000000000e+00  0.0000000000e+00  0.0000000000e+00  0.0000000000e+00        173
XX        2.1450000000e+01  1.4850000000e+01  1.6500000000e+00  0.0000000000e+00  0.0000000000e+00  0.0000000000e+00        174
XX        2.3100000000e+01  1.3200000000e+01  0.0000000000e+00  0.0000000000e+00  0.0000000000e+00  0.0000000000e+00        175
XX        2.4750000000e+01  1.4850000000e+01  1.6500000000e+00  0.0000000000e+00  0.0000000000e+00  0.0000000000e+00        176
XX        2.6400000000e+01  1.3200000000e+01  0.0000000000e+00  0.0000000000e+00  0.0000000000e+00  0.0000000000e+00        177
XX        2.8050000000e+01  1.4850000000e+01  1.6500000000e+00  0.0000000000e+00  0.0000000000e+00  0.0000000000e+00        178
XX        2.9700000000e+01  1.3200000000e+01  0.0000000000e+00  0.0000000000e+00  0.0000000000e+00  0.0000000000e+00        179
XX        3.1350000000e+01  1.4850000000e+01  1.6500000000e+00  0.0000000000e+00  0.0000000000e+00  0.0000000000e+00        180
XX        3.3000000000e+01  1.3200000000e+01  0.0000000000e+00  0.0000000000e+00  0.0000000000e+00  0.0000000000e+00        181
XX        3.4650000000e+01  1.4850000000e+01  1.6500000000e+00  0.0000000000e+00  0.0000000000e+00  0.0000000000e+00        182
XX        3.6300000000e+01  1.3200000000e+01  0.0000000000e+00  0.0000000000e+00  0.0000000000e+00  0.0000000000e+00        183
XX        3.7950000000e+01  1.4850000000e+01  1.6500000000e+00  0.0000000000e+00  0.0000000000e+00  0.0000000000e+00        184
XX        3.9600000000e+01  1.3200000000e+01  0.0000000000e+00  0.0000000000e+00  0.0000000000e+00  0.0000000000e+00        185
XX        4.1250000000e+01  1.4850000000e+01  1.6500000000e+00  0.0000000000e+00  0.0000000000e+00  0.0000000000e+00        186
XX        4.2900000000e+01  1.3200000000e+01  0.0000000000e+00  0.0000000000e+00  0.0000000000e+00  0.0000000000e+00        187
XX        4.4550000000e+01  1.4850000000e+01  1.6500000000e+00  0.0000000000e+00  0.0000000000e+00  0.0000000000e+00        188
XX        4.6200000000e+01  1.3200000000e+01  0.0000000000e+00  0.0000000000e+00  0.0000000000e+00  0.0000000000e+00        189
XX        4.7850000000e+01  1.4850000000e+01  1.6500000000e+00  0.0000000000e+00  0.0000000000e+00  0.0000000000e+00        190
XX        4.9500000000e+01  1.3200000000e+01  0.0000000000e+00  0.0000000000e+00  0.0000000000e+00  0.0000000000e+00        191
XX        5.1150000000e+01  1.4850000000e+01  1.6500000000e+00  0.0000000000e+00  0.0000000000e+00  0.0000000000e+00        192
XX        5.2800000000e+01  1.3200000000e+01  0.0000000000e+00  0.0000000000e+00  0.0000000000e+00  0.0000000000e+00        193
XX        5.4450000000e+01  1.4850000000e+01  1.6500000000e+00  0.0000000000e+00  0.0000000000e+00  0.0000000000e+00        194
XX        5.6100000000e+01  1.3200000000e+01  0.0000000000e+00  0.0000000000e+00  0.0000000000e+00  0.0000000000e+00        195
XX        5.7750000000e+01  1.4850000000e+01  1.6500000000e+00  0.0000000000e+00  0.0000000000e+00  0.0000000000e+00        196
XX        5.9400000000e+01  1.3200000000e+01  0.0000000000e+00  0.0000000000e+00  0.0000000000e+00  0.0000000000e+00        197
XX        6.1050000000e+01  1.4850000000e+01  1.6500000000e+00  0.0000000000e+00  0.0000000000e+00  0.0000000000e+00        198
XX        6.2700000000e+01  1.3200000000e+01  0.0000000000e+00  0.0000000000e+00  0.0000000000e+00  0.0000000000e+00        199
XX        6.4350000000e+01  1.4850000000e+01  1.6500000000e+00  0.0000000000e+00  0.0000000000e+00  0.0000000000e+00        200
XX        0.0000000000e+00  1.6500000000e+01  0.0000000000e+00  0.0000000000e+00  0.0000000000e+00  0.0000000000e+00        201
XX        1.6500000000e+00  1.8150000000e+01  1.6500000000e+00  0.0000000000e+00  0.0000000000e+00  0.0000000000e+00        202
XX        0.0000000000e+00  1.9800000000e+01  0.0000000000e+00  0.0000000000e+00  0.0000000000e+00  0.0000000000e+00        203
XX        3.3000000000e+00  1.6500000000e+01  0.0000000000e+00  0.0000000000e+00  0.0000000000e+00  0.0000000000e+00        204
XX        4.9500000000e+00  1.8150000000e+01  1.6500000000e+00  0.0000000000e+00  0.0000000000e+00  0.0000000000e+00        205
XX        3.3000000000e+00  1.9800000000e+01  0.0000000000e+00  0.0000000000e+00  0.0000000000e+00  0.0000000000e+00        206
XX        6.6000000000e+00  1.6500000000e+01  0.0000000000e+00  0.0000000000e+00  0.0000000000e+00  0.0000000000e+00        207
XX        8.2500000000e+00  1.8150000000e+01  1.6500000000e+00  0.0000000000e+00  0.0000000000e+00  0.0000000000e+00        208
XX        9.9000000000e+00  1.6500000000e+01  0.0000000000e+00  0.0000000000e+00  0.0000000000e+00  0.0000000000e+00        209
XX        6.6000000000e+00  1.9800000000e+01  0.0000000000e+00  0.0000000000e+00  0.0000000000e+00  0.0000000000e+00        210
XX        9.9000000000e+00  1.9800000000e+01  0.0000000000e+00  0.0000000000e+00  0.0000000000e+00  0.0000000000e+00        211
XX        1.1550000000e+01  1.8150000000e+01  1.6500000000e+00  0.0000000000e+00  0.0000000000e+00  0.0000000000e+00        212
XX        1.3200000000e+01  1.6500000000e+01  0.0000000000e+00  0.0000000000e+00  0.0000000000e+00  0.0000000000e+00        213
XX        1.4850000000e+01  1.8150000000e+01  1.6500000000e+00  0.0000000000e+00  0.0000000000e+00  0.0000000000e+00        214
XX        1.3200000000e+01  1.9800000000e+01  0.0000000000e+00  0.0000000000e+00  0.0000000000e+00  0.0000000000e+00        215
XX        1.6500000000e+01  1.6500000000e+01  0.0000000000e+00  0.0000000000e+00  0.0000000000e+00  0.0000000000e+00        216
XX        1.8150000000e+01  1.8150000000e+01  1.6500000000e+00  0.0000000000e+00  0.0000000000e+00  0.0000000000e+00        217
XX        1.9800000000e+01  1.6500000000e+01  0.0000000000e+00  0.0000000000e+00  0.0000000000e+00  0.0000000000e+00        218
XX        1.6500000000e+01  1.9800000000e+01  0.0000000000e+00  0.0000000000e+00  0.0000000000e+00  0.0000000000e+00        219
XX        1.9800000000e+01  1.9800000000e+01  0.0000000000e+00  0.0000000000e+00  0.0000000000e+00  0.0000000000e+00        220
XX        2.1450000000e+01  1.8150000000e+01  1.6500000000e+00  0.0000000000e+00  0.0000000000e+00  0.0000000000e+00        221
XX        2.3100000000e+01  1.6500000000e+01  0.0000000000e+00  0.0000000000e+00  0.0000000000e+00  0.0000000000e+00        222
XX        2.4750000000e+01  1.8150000000e+01  1.6500000000e+00  0.0000000000e+00  0.0000000000e+00  0.0000000000e+00        223
XX        2.3100000000e+01  1.9800000000e+01  0.0000000000e+00  0.0000000000e+00  0.0000000000e+00  0.0000000000e+00        224
XX        2.6400000000e+01  1.6500000000e+01  0.0000000000e+00  0.0000000000e+00  0.0000000000e+00  0.0000000000e+00        225
XX        2.8050000000e+01  1.8150000000e+01  1.6500000000e+00  0.0000000000e+00  0.0000000000e+00  0.0000000000e+00        226
XX        2.6400000000e+01  1.9800000000e+01  0.0000000000e+00  0.0000000000e+00  0.0000000000e+00  0.0000000000e+00        227
XX        2.9700000000e+01  1.6500000000e+01  0.0000000000e+00  0.0000000000e+00  0.0000000000e+00  0.0000000000e+00        228
XX        3.1350000000e+01  1.8150000000e+01  1.6500000000e+00  0.0000000000e+00  0.0000000000e+00  0.0000000000e+00        229
XX        2.9700000000e+01  1.9800000000e+01  0.0000000000e+00  0.0000000000e+00  0.0000000000e+00  0.0000000000e+00        230
XX        3.3000000000e+01  1.6500000000e+01  0.0000000000e+00  0.0000000000e+00  0.0000000000e+00  0.0000000000e+00        231
XX        3.4650000000e+01  1.8150000000e+01  1.6500000000e+00  0.0000000000e+00  0.0000000000e+00  0.0000000000e+00        232