432
config_type=liquid energy=0. virial="0.0 0.0 0.0 0.0 0.0 0.0" Lattice="18.96 0.0 0.0 0.0 18.96 0.0 0.0 0.0 18.96" Properties=species:S:1:pos:R:3
Mo 0.00000000  0.00000000  0.00000000
Mo 1.58000000  1.58000000  1.58000000
Mo 3.16000000  0.00000000  0.00000000
Mo 0.00000000  3.16000000  0.00000000
Mo 3.16000000  3.16000000  0.00000000
Mo 0.00000000  0.00000000  3.16000000
Mo 3.16000000  0.00000000  3.16000000
Mo 0.00000000  3.16000000  3.16000000
Mo 3.16000000  3.16000000  3.16000000
Mo 4.74000000  1.58000000  1.58000000
Mo 6.32000000  0.00000000  0.00000000
Mo 6.32000000  3.16000000  0.00000000
Mo 6.32000000  0.00000000  3.16000000
Mo 6.32000000  3.16000000  3.16000000
Mo 7.90000000  1.58000000  1.58000000
Mo 9.48000000  0.00000000  0.00000000
Mo 11.06000000  1.58000000  1.5800000
Mo 12.64000000  0.00000000  0.0000000
Mo 9.48000000  3.16000000  0.00000000
Mo 12.64000000  3.16000000  0.0000000
Mo 9.48000000  0.00000000  3.16000000
Mo 12.64000000  0.00000000  3.1600000
Mo 9.48000000  3.16000000  3.16000000
Mo 12.64000000  3.16000000  3.1600000
Mo 14.22000000  1.58000000  1.5800000
Mo 15.80000000  0.00000000  0.0000000
Mo 17.38000000  1.58000000  1.5800000
Mo 15.80000000  3.16000000  0.0000000
Mo 15.80000000  0.00000000  3.1600000
Mo 15.80000000  3.16000000  3.1600000
Mo 1.58000000  4.74000000  1.58000000
Mo 0.00000000  6.32000000  0.00000000
Mo 3.16000000  6.32000000  0.00000000
Mo 0.00000000  6.32000000  3.16000000
Mo 3.16000000  6.32000000  3.16000000
Mo 4.74000000  4.74000000  1.58000000
Mo 6.32000000  6.32000000  0.00000000
Mo 6.32000000  6.32000000  3.16000000
Mo 7.90000000  4.74000000  1.58000000
Mo 11.06000000  4.74000000  1.5800000
Mo 9.48000000  6.32000000  0.00000000
Mo 12.64000000  6.32000000  0.0000000
Mo 9.48000000  6.32000000  3.16000000
Mo 12.64000000  6.32000000  3.1600000
Mo 14.22000000  4.74000000  1.5800000
Mo 17.38000000  4.74000000  1.5800000
Mo 15.80000000  6.32000000  0.0000000
Mo 15.80000000  6.32000000  3.1600000
Mo 1.58000000  7.90000000  1.58000000
Mo 4.74000000  7.90000000  1.58000000
Mo 7.90000000  7.90000000  1.58000000
Mo 11.06000000  7.90000000  1.5800000
Mo 14.22000000  7.90000000  1.5800000
Mo 17.38000000  7.90000000  1.5800000
Mo 0.00000000  9.48000000  0.00000000
Mo 1.58000000  11.06000000  1.5800000
Mo 3.16000000  9.48000000  0.00000000
Mo 0.00000000  12.64000000  0.0000000
Mo 3.16000000  12.64000000  0.0000000
Mo 0.00000000  9.48000000  3.16000000
Mo 3.16000000  9.48000000  3.16000000
Mo 0.00000000  12.64000000  3.1600000
Mo 3.16000000  12.64000000  3.1600000
Mo 4.74000000  11.06000000  1.5800000
Mo 6.32000000  9.48000000  0.00000000
Mo 6.32000000  12.64000000  0.0000000
Mo 6.32000000  9.48000000  3.16000000
Mo 6.32000000  12.64000000  3.1600000
Mo 7.90000000  11.06000000  1.5800000
Mo 9.48000000  9.48000000  0.00000000
Mo 11.06000000  11.06000000  1.580000
Mo 12.64000000  9.48000000  0.0000000
Mo 9.48000000  12.64000000  0.0000000
Mo 12.64000000  12.64000000  0.000000
Mo 9.48000000  9.48000000  3.16000000
Mo 12.64000000  9.48000000  3.1600000
Mo 9.48000000  12.64000000  3.1600000
Mo 12.64000000  12.64000000  3.160000
Mo 14.22000000  11.06000000  1.580000
Mo 15.80000000  9.48000000  0.0000000
Mo 17.38000000  11.06000000  1.580000
Mo 15.80000000  12.64000000  0.000000
Mo 15.80000000  9.48000000  3.1600000
Mo 15.80000000  12.64000000  3.160000
Mo 1.58000000  14.22000000  1.5800000
Mo 4.74000000  14.22000000  1.5800000
Mo 7.90000000  14.22000000  1.5800000
Mo 11.06000000  14.22000000  1.580000
Mo 14.22000000  14.22000000  1.580000
Mo 17.38000000  14.22000000  1.580000
Mo 0.00000000  15.80000000  0.0000000
Mo 1.58000000  17.38000000  1.5800000
Mo 3.16000000  15.80000000  0.0000000
Mo 0.00000000  15.80000000  3.1600000
Mo 3.16000000  15.80000000  3.1600000
Mo 4.74000000  17.38000000  1.5800000
Mo 6.32000000  15.80000000  0.0000000
Mo 6.32000000  15.80000000  3.1600000
Mo 7.90000000  17.38000000  1.5800000
Mo 9.48000000  15.80000000  0.0000000
Mo 11.06000000  17.38000000  1.580000
Mo 12.64000000  15.80000000  0.000000
Mo 9.48000000  15.80000000  3.1600000
Mo 12.64000000  15.80000000  3.160000
Mo 14.22000000  17.38000000  1.580000
Mo 15.80000000  15.80000000  0.000000
Mo 17.38000000  17.38000000  1.580000
Mo 15.80000000  15.80000000  3.160000
Mo 1.58000000  1.58000000  4.74000000
Mo 0.00000000  0.00000000  6.32000000
Mo 3.16000000  0.00000000  6.32000000
Mo 0.00000000  3.16000000  6.32000000
Mo 3.16000000  3.16000000  6.32000000
Mo 4.74000000  1.58000000  4.74000000
Mo 6.32000000  0.00000000  6.32000000
Mo 6.32000000  3.16000000  6.32000000
Mo 7.90000000  1.58000000  4.74000000
Mo 11.06000000  1.58000000  4.7400000
Mo 9.48000000  0.00000000  6.32000000
Mo 12.64000000  0.00000000  6.3200000
Mo 9.48000000  3.16000000  6.32000000
Mo 12.64000000  3.16000000  6.3200000
Mo 14.22000000  1.58000000  4.7400000
Mo 17.38000000  1.58000000  4.7400000
Mo 15.80000000  0.00000000  6.3200000
Mo 15.80000000  3.16000000  6.3200000
Mo 1.58000000  4.74000000  4.74000000
Mo 0.00000000  6.32000000  6.32000000
Mo 3.16000000  6.32000000  6.32000000
Mo 4.74000000  4.74000000  4.74000000
Mo 6.32000000  6.32000000  6.32000000
Mo 7.90000000  4.74000000  4.74000000
Mo 11.06000000  4.74000000  4.7400000
Mo 9.48000000  6.32000000  6.32000000
Mo 12.64000000  6.32000000  6.3200000
Mo 14.22000000  4.74000000  4.7400000
Mo 17.38000000  4.74000000  4.7400000
Mo 15.80000000  6.32000000  6.3200000
Mo 1.58000000  7.90000000  4.74000000
Mo 4.74000000  7.90000000  4.74000000
Mo 7.90000000  7.90000000  4.74000000
Mo 11.06000000  7.90000000  4.7400000
Mo 14.22000000  7.90000000  4.7400000
Mo 17.38000000  7.90000000  4.7400000
Mo 1.58000000  11.06000000  4.7400000
Mo 0.00000000  9.48000000  6.32000000
Mo 3.16000000  9.48000000  6.32000000
Mo 0.00000000  12.64000000  6.3200000
Mo 3.16000000  12.64000000  6.3200000
Mo 4.74000000  11.06000000  4.7400000
Mo 6.32000000  9.48000000  6.32000000
Mo 6.32000000  12.64000000  6.3200000
Mo 7.90000000  11.06000000  4.7400000
Mo 11.06000000  11.06000000  4.740000
Mo 9.48000000  9.48000000  6.32000000
Mo 12.64000000  9.48000000  6.3200000
Mo 9.48000000  12.64000000  6.3200000
Mo 12.64000000  12.64000000  6.320000
Mo 14.22000000  11.06000000  4.740000
Mo 17.38000000  11.06000000  4.740000
Mo 15.80000000  9.48000000  6.3200000
Mo 15.80000000  12.64000000  6.320000
Mo 1.58000000  14.22000000  4.7400000
Mo 4.74000000  14.22000000  4.7400000
Mo 7.90000000  14.22000000  4.7400000
Mo 11.06000000  14.22000000  4.740000
Mo 14.22000000  14.22000000  4.740000
Mo 17.38000000  14.22000000  4.740000
Mo 1.58000000  17.38000000  4.7400000
Mo 0.00000000  15.80000000  6.3200000
Mo 3.16000000  15.80000000  6.3200000
Mo 4.74000000  17.38000000  4.7400000
Mo 6.32000000  15.80000000  6.3200000
Mo 7.90000000  17.38000000  4.7400000
Mo 11.06000000  17.38000000  4.740000
Mo 9.48000000  15.80000000  6.3200000
Mo 12.64000000  15.80000000  6.320000
Mo 14.22000000  17.38000000  4.740000
Mo 17.38000000  17.38000000  4.740000
Mo 15.80000000  15.80000000  6.320000
Mo 1.58000000  1.58000000  7.90000000
Mo 4.74000000  1.58000000  7.90000000
Mo 7.90000000  1.58000000  7.90000000
Mo 11.06000000  1.58000000  7.9000000
Mo 14.22000000  1.58000000  7.9000000
Mo 17.38000000  1.58000000  7.9000000
Mo 1.58000000  4.74000000  7.90000000
Mo 4.74000000  4.74000000  7.90000000
Mo 7.90000000  4.74000000  7.90000000
Mo 11.06000000  4.74000000  7.9000000
Mo 14.22000000  4.74000000  7.9000000
Mo 17.38000000  4.74000000  7.9000000
Mo 1.58000000  7.90000000  7.90000000
Mo 4.74000000  7.90000000  7.90000000
Mo 7.90000000  7.90000000  7.90000000
Mo 11.06000000  7.90000000  7.9000000
Mo 14.22000000  7.90000000  7.9000000
Mo 17.38000000  7.90000000  7.9000000
Mo 1.58000000  11.06000000  7.9000000
Mo 4.74000000  11.06000000  7.9000000
Mo 7.90000000  11.06000000  7.9000000
Mo 11.06000000  11.06000000  7.900000
Mo 14.22000000  11.06000000  7.900000
Mo 17.38000000  11.06000000  7.900000
Mo 1.58000000  14.22000000  7.9000000
Mo 4.74000000  14.22000000  7.9000000
Mo 7.90000000  14.22000000  7.9000000
Mo 11.06000000  14.22000000  7.900000
Mo 14.22000000  14.22000000  7.900000
Mo 17.38000000  14.22000000  7.900000
Mo 1.58000000  17.38000000  7.9000000
Mo 4.74000000  17.38000000  7.9000000
Mo 7.90000000  17.38000000  7.9000000
Mo 11.06000000  17.38000000  7.900000
Mo 14.22000000  17.38000000  7.900000
Mo 17.38000000  17.38000000  7.900000
Mo 0.00000000  0.00000000  9.48000000
Mo 1.58000000  1.58000000  11.0600000
Mo 3.16000000  0.00000000  9.48000000
Mo 0.00000000  3.16000000  9.48000000
Mo 3.16000000  3.16000000  9.48000000
Mo 0.00000000  0.00000000  12.6400000
Mo 3.16000000  0.00000000  12.6400000
Mo 0.00000000  3.16000000  12.6400000
Mo 3.16000000  3.16000000  12.6400000
Mo 4.74000000  1.58000000  11.0600000
Mo 6.32000000  0.00000000  9.48000000
Mo 6.32000000  3.16000000  9.48000000
Mo 6.32000000  0.00000000  12.6400000
Mo 6.32000000  3.16000000  12.6400000
Mo 7.90000000  1.58000000  11.0600000
Mo 9.48000000  0.00000000  9.48000000
Mo 11.06000000  1.58000000  11.060000
Mo 12.64000000  0.00000000  9.4800000
Mo 9.48000000  3.16000000  9.48000000
Mo 12.64000000  3.16000000  9.4800000
Mo 9.48000000  0.00000000  12.6400000
Mo 12.64000000  0.00000000  12.640000
Mo 9.48000000  3.16000000  12.6400000
Mo 12.64000000  3.16000000  12.640000
Mo 14.22000000  1.58000000  11.060000
Mo 15.80000000  0.00000000  9.4800000
Mo 17.38000000  1.58000000  11.060000
Mo 15.80000000  3.16000000  9.4800000
Mo 15.80000000  0.00000000  12.640000
Mo 15.80000000  3.16000000  12.640000
Mo 1.58000000  4.74000000  11.0600000
Mo 0.00000000  6.32000000  9.48000000
Mo 3.16000000  6.32000000  9.48000000
Mo 0.00000000  6.32000000  12.6400000
Mo 3.16000000  6.32000000  12.6400000
Mo 4.74000000  4.74000000  11.0600000
Mo 6.32000000  6.32000000  9.48000000
Mo 6.32000000  6.32000000  12.6400000
Mo 7.90000000  4.74000000  11.0600000
Mo 11.06000000  4.74000000  11.060000
Mo 9.48000000  6.32000000  9.48000000
Mo 12.64000000  6.32000000  9.4800000
Mo 9.48000000  6.32000000  12.6400000
Mo 12.64000000  6.32000000  12.640000
Mo 14.22000000  4.74000000  11.060000
Mo 17.38000000  4.74000000  11.060000
Mo 15.80000000  6.32000000  9.4800000
Mo 15.80000000  6.32000000  12.640000
Mo 1.58000000  7.90000000  11.0600000
Mo 4.74000000  7.90000000  11.0600000
Mo 7.90000000  7.90000000  11.0600000
Mo 11.06000000  7.90000000  11.060000
Mo 14.22000000  7.90000000  11.060000
Mo 17.38000000  7.90000000  11.060000
Mo 0.00000000  9.48000000  9.48000000
Mo 1.58000000  11.06000000  11.060000
Mo 3.16000000  9.48000000  9.48000000
Mo 0.00000000  12.64000000  9.4800000
Mo 3.16000000  12.64000000  9.4800000
Mo 0.00000000  9.48000000  12.6400000
Mo 3.16000000  9.48000000  12.6400000
Mo 0.00000000  12.64000000  12.640000
Mo 3.16000000  12.64000000  12.640000
Mo 4.74000000  11.06000000  11.060000
Mo 6.32000000  9.48000000  9.48000000
Mo 6.32000000  12.64000000  9.4800000
Mo 6.32000000  9.48000000  12.6400000
Mo 6.32000000  12.64000000  12.640000
Mo 7.90000000  11.06000000  11.060000
Mo 9.48000000  9.48000000  9.48000000
Mo 11.06000000  11.06000000  11.06000
Mo 12.64000000  9.48000000  9.4800000
Mo 9.48000000  12.64000000  9.4800000
Mo 12.64000000  12.64000000  9.480000
Mo 9.48000000  9.48000000  12.6400000
Mo 12.64000000  9.48000000  12.640000
Mo 9.48000000  12.64000000  12.640000
Mo 12.64000000  12.64000000  12.64000
Mo 14.22000000  11.06000000  11.06000
Mo 15.80000000  9.48000000  9.4800000
Mo 17.38000000  11.06000000  11.06000
Mo 15.80000000  12.64000000  9.480000
Mo 15.80000000  9.48000000  12.640000
Mo 15.80000000  12.64000000  12.64000
Mo 1.58000000  14.22000000  11.060000
Mo 4.74000000  14.22000000  11.060000
Mo 7.90000000  14.22000000  11.060000
Mo 11.06000000  14.22000000  11.06000
Mo 14.22000000  14.22000000  11.06000
Mo 17.38000000  14.22000000  11.06000
Mo 0.00000000  15.80000000  9.4800000
Mo 1.58000000  17.38000000  11.060000
Mo 3.16000000  15.80000000  9.4800000
Mo 0.00000000  15.80000000  12.640000
Mo 3.16000000  15.80000000  12.640000
Mo 4.74000000  17.38000000  11.060000
Mo 6.32000000  15.80000000  9.4800000
Mo 6.32000000  15.80000000  12.640000
Mo 7.90000000  17.38000000  11.060000
Mo 9.48000000  15.80000000  9.4800000
Mo 11.06000000  17.38000000  11.06000
Mo 12.64000000  15.80000000  9.480000
Mo 9.48000000  15.80000000  12.640000
Mo 12.64000000  15.80000000  12.64000
Mo 14.22000000  17.38000000  11.06000
Mo 15.80000000  15.80000000  9.480000
Mo 17.38000000  17.38000000  11.06000
Mo 15.80000000  15.80000000  12.64000
Mo 1.58000000  1.58000000  14.2200000
Mo 4.74000000  1.58000000  14.2200000
Mo 7.90000000  1.58000000  14.2200000
Mo 11.06000000  1.58000000  14.220000
Mo 14.22000000  1.58000000  14.220000
Mo 17.38000000  1.58000000  14.220000
Mo 1.58000000  4.74000000  14.2200000
Mo 4.74000000  4.74000000  14.2200000
Mo 7.90000000  4.74000000  14.2200000
Mo 11.06000000  4.74000000  14.220000
Mo 14.22000000  4.74000000  14.220000
Mo 17.38000000  4.74000000  14.220000
Mo 1.58000000  7.90000000  14.2200000
Mo 4.74000000  7.90000000  14.2200000
Mo 7.90000000  7.90000000  14.2200000
Mo 11.06000000  7.90000000  14.220000
Mo 14.22000000  7.90000000  14.220000
Mo 17.38000000  7.90000000  14.220000
Mo 1.58000000  11.06000000  14.220000
Mo 4.74000000  11.06000000  14.220000
Mo 7.90000000  11.06000000  14.220000
Mo 11.06000000  11.06000000  14.22000
Mo 14.22000000  11.06000000  14.22000
Mo 17.38000000  11.06000000  14.22000
Mo 1.58000000  14.22000000  14.220000
Mo 4.74000000  14.22000000  14.220000
Mo 7.90000000  14.22000000  14.220000
Mo 11.06000000  14.22000000  14.22000
Mo 14.22000000  14.22000000  14.22000
Mo 17.38000000  14.22000000  14.22000
Mo 1.58000000  17.38000000  14.220000
Mo 4.74000000  17.38000000  14.220000
Mo 7.90000000  17.38000000  14.220000
Mo 11.06000000  17.38000000  14.22000
Mo 14.22000000  17.38000000  14.22000
Mo 17.38000000  17.38000000  14.22000
Mo 0.00000000  0.00000000  15.8000000
Mo 1.58000000  1.58000000  17.3800000
Mo 3.16000000  0.00000000  15.8000000
Mo 0.00000000  3.16000000  15.8000000
Mo 3.16000000  3.16000000  15.8000000
Mo 4.74000000  1.58000000  17.3800000
Mo 6.32000000  0.00000000  15.8000000
Mo 6.32000000  3.16000000  15.8000000
Mo 7.90000000  1.58000000  17.3800000
Mo 9.48000000  0.00000000  15.8000000
Mo 11.06000000  1.58000000  17.380000
Mo 12.64000000  0.00000000  15.800000
Mo 9.48000000  3.16000000  15.8000000
Mo 12.64000000  3.16000000  15.800000
Mo 14.22000000  1.58000000  17.380000
Mo 15.80000000  0.00000000  15.800000
Mo 17.38000000  1.58000000  17.380000
Mo 15.80000000  3.16000000  15.800000
Mo 1.58000000  4.74000000  17.3800000
Mo 0.00000000  6.32000000  15.8000000
Mo 3.16000000  6.32000000  15.8000000
Mo 4.74000000  4.74000000  17.3800000
Mo 6.32000000  6.32000000  15.8000000
Mo 7.90000000  4.74000000  17.3800000
Mo 11.06000000  4.74000000  17.380000
Mo 9.48000000  6.32000000  15.8000000
Mo 12.64000000  6.32000000  15.800000
Mo 14.22000000  4.74000000  17.380000
Mo 17.38000000  4.74000000  17.380000
Mo 15.80000000  6.32000000  15.800000
Mo 1.58000000  7.90000000  17.3800000
Mo 4.74000000  7.90000000  17.3800000
Mo 7.90000000  7.90000000  17.3800000
Mo 11.06000000  7.90000000  17.380000
Mo 14.22000000  7.90000000  17.380000
Mo 17.38000000  7.90000000  17.380000
Mo 0.00000000  9.48000000  15.8000000
Mo 1.58000000  11.06000000  17.380000
Mo 3.16000000  9.48000000  15.8000000
Mo 0.00000000  12.64000000  15.800000
Mo 3.16000000  12.64000000  15.800000
Mo 4.74000000  11.06000000  17.380000
Mo 6.32000000  9.48000000  15.8000000
Mo 6.32000000  12.64000000  15.800000
Mo 7.90000000  11.06000000  17.380000
Mo 9.48000000  9.48000000  15.8000000
Mo 11.06000000  11.06000000  17.38000
Mo 12.64000000  9.48000000  15.800000
Mo 9.48000000  12.64000000  15.800000
Mo 12.64000000  12.64000000  15.80000
Mo 14.22000000  11.06000000  17.38000
Mo 15.80000000  9.48000000  15.800000
Mo 17.38000000  11.06000000  17.38000
Mo 15.80000000  12.64000000  15.80000
Mo 1.58000000  14.22000000  17.380000
Mo 4.74000000  14.22000000  17.380000
Mo 7.90000000  14.22000000  17.380000
Mo 11.06000000  14.22000000  17.38000
Mo 14.22000000  14.22000000  17.38000
Mo 17.38000000  14.22000000  17.38000
Mo 0.00000000  15.80000000  15.800000
Mo 1.58000000  17.38000000  17.380000
Mo 3.16000000  15.80000000  15.800000
Mo 4.74000000  17.38000000  17.380000
Mo 6.32000000  15.80000000  15.800000
Mo 7.90000000  17.38000000  17.380000
Mo 9.48000000  15.80000000  15.800000
Mo 11.06000000  17.38000000  17.38000
Mo 12.64000000  15.80000000  15.80000
Mo 14.22000000  17.38000000  17.38000
Mo 15.80000000  15.80000000  15.80000
Mo 17.38000000  17.38000000  17.38000
