# LAMMPS data file written by OVITO Basic 3.11.3

216 atoms
2 atom types

0.0 10.466079 xlo xhi
0.0 10.466079 ylo yhi
0.0 10.466079 zlo zhi

Masses

1 1.00794  # H
2 12.0107  # C

Atoms  # atomic

1 1 0.93118 0.0 1.828281
2 2 2.05549 1.926616 0.458982
3 2 2.044493 2.016199 1.936264
4 1 0.52039 1.822757 0.0
5 2 4.569824 0.35377 0.437895
6 2 3.220661 1.586798 2.503564
7 1 5.0898 1.598404 1.055783
8 1 4.624811 1.282985 2.443589
9 2 2.915887 0.252404 2.459827
10 1 7.190442 0.49517 1.235449
11 1 9.571931 1.186282 1.724474
12 2 10.317531 2.521873 2.29601
13 2 7.975139 1.330246 1.765129
14 1 1.913049 4.001628 2.038737
15 1 0.775716 3.866892 0.833752
16 2 4.28333 3.963581 0.719247
17 2 4.460803 2.634389 0.201728
18 1 5.198611 4.495313 1.73347
19 1 2.929168 3.927736 1.018453
20 2 6.808382 3.222395 1.57142
21 1 7.769152 4.180824 2.069695
22 2 5.748511 3.307547 2.525354
23 1 6.696621 3.202576 0.090073
24 1 9.227213 2.704918 0.027336
25 2 8.283842 3.907477 0.034199
26 1 8.898246 4.629255 1.172676
27 2 9.927089 3.454281 1.537339
28 2 0.777484 5.337855 0.696302
29 2 1.904669 6.118377 0.596559
30 1 1.314862 7.165333 2.355144
31 2 4.192891 6.236509 0.098265
32 2 3.630138 5.959385 2.559859
33 1 3.384806 5.912375 0.96887
34 2 5.164277 7.822961 2.018261
35 2 7.368711 6.721806 2.571027
36 1 6.075477 6.407501 0.533965
37 2 6.021354 5.53906 1.814022
38 1 6.746928 7.557774 0.807824
39 2 8.08354 7.183173 1.179306
40 1 9.274515 7.190019 1.515215
41 2 9.902275 5.49884 0.585056
42 1 10.407594 6.497324 2.209268
43 2 2.091457 10.321569 1.235454
44 1 1.211593 8.490593 1.704938
45 1 2.659537 8.411137 1.64362
46 2 2.725103 9.956614 0.055748
47 1 4.577617 8.444094 0.824454
48 1 6.754491 8.556694 0.008584
49 1 6.557055 9.87338 0.642789
50 2 6.374953 8.545982 2.131454
51 1 5.242623 9.731897 0.403992
52 2 8.92521 9.262639 1.272864
53 2 10.380336 8.411646 0.990093
54 2 10.042866 10.280262 1.664721
55 1 0.891777 2.063686 2.770508
56 2 1.017645 2.506942 4.045617
57 1 1.922881 1.779254 4.763367
58 2 2.112568 0.32505 3.702225
59 2 3.08588 2.541711 3.641441
60 2 5.166373 2.466721 3.382835
61 2 4.662689 1.126521 5.211817
62 2 4.214464 2.494639 4.635852
63 1 7.77069 1.30821 3.526924
64 2 6.798176 2.055159 4.04843
65 1 6.683456 0.950206 5.123316
66 2 8.738835 0.151176 3.604139
67 2 9.040563 2.078724 3.845243
68 2 9.889833 0.743476 4.152437
69 2 1.818074 4.648659 4.384596
70 2 2.481871 3.864255 3.426631
71 1 0.630764 3.695987 4.564596
72 2 3.966486 4.72985 3.485092
73 2 4.246332 4.367694 4.781616
74 1 6.830816 3.428775 4.113338
75 1 6.055341 3.66832 5.06029
76 1 7.74226 3.717151 3.356769
77 2 8.497297 4.784759 4.917935
78 1 9.151596 3.337471 3.56043
79 1 10.172969 4.486994 3.681153
80 1 1.675573 5.990466 4.203864
81 1 2.372909 6.445235 2.887661
82 1 0.767338 6.794247 4.646171
83 2 4.759869 6.700806 2.664866
84 2 3.26158 6.626454 4.441919
85 2 5.112582 5.696757 5.184641
86 1 7.370885 5.33955 4.2953
87 2 6.478688 5.876679 3.244109
88 2 5.281158 6.057591 3.794573
89 2 8.519281 6.375172 3.061654
90 2 9.862821 6.482936 4.564628
91 2 8.985677 7.454639 3.959425
92 1 9.594932 5.48243 2.805621
93 1 0.817256 10.123792 3.13457
94 1 1.253692 8.17551 4.595911
95 2 2.585401 8.572262 5.070372
96 2 0.41621 8.764381 3.768785
97 1 3.441978 8.599483 3.015104
98 2 5.162788 8.174322 4.828709
99 1 5.191433 10.401605 2.896962
100 2 2.862688 10.021911 4.558559
101 1 3.910707 10.419002 5.160242
102 1 4.027045 9.840377 2.691968
103 2 4.065966 7.873841 4.228109
104 1 7.070802 10.20978 4.677215
105 2 6.29634 10.092658 3.459022
106 1 6.443019 8.000813 4.770048
107 2 7.235602 9.218077 2.882768
108 1 7.75034 8.189599 4.393175
109 1 8.164751 9.513268 5.20109
110 2 8.639434 9.303013 3.152358
111 2 9.717016 8.525281 3.541346
112 2 9.59437 9.624843 5.130692
113 2 2.323008 1.945822 6.180547
114 1 2.42352 1.240446 7.250256
115 1 0.327864 1.799258 6.32331
116 1 0.675038 0.269222 7.665827
117 1 0.211346 0.723786 5.426409
118 2 4.8512 1.124751 6.597913
119 1 3.794573 1.090878 7.325792
120 1 6.047581 2.591598 6.380896
121 1 6.634055 1.06036 6.583706
122 2 8.895065 2.157304 5.600111
123 1 8.076781 1.492298 6.540329
124 2 9.18899 0.480293 6.901149
125 1 8.089997 2.473877 7.564272
126 1 10.385993 1.422401 7.520853
127 1 1.345217 3.533182 6.787235
128 1 0.05725 3.070171 5.563771
129 2 2.100829 4.573158 6.293135
130 1 3.433317 4.092643 5.851009
131 1 3.471569 2.887782 6.344256
132 2 4.740035 3.025892 7.130455
133 2 7.472756 3.54558 6.495222
134 1 7.087013 4.890305 6.522127
135 1 6.438837 5.057144 5.426289
136 1 6.114625 4.53334 7.537395
137 1 9.767368 5.048499 7.625035
138 2 9.599367 3.674843 7.320708
139 2 8.502249 3.699047 5.711287
140 1 0.50405 6.78702 6.409271
141 2 1.515618 5.699923 6.459389
142 2 0.616469 7.794272 7.14336
143 1 4.541687 6.160411 6.335923
144 2 3.310687 6.599811 5.945817
145 1 2.96708 7.693897 6.447234
146 2 4.864482 5.253173 7.490536
147 2 6.600314 7.433295 6.088068
148 2 5.365581 7.500446 6.632678
149 2 7.787377 5.705192 7.18733
150 1 7.119932 6.915488 7.297709
151 1 9.723555 5.886343 6.430329
152 1 9.041028 5.812716 5.426404
153 2 0.980778 10.037521 5.814394
154 1 1.915649 9.805708 6.714272
155 1 0.195163 8.773484 6.030521
156 1 2.903685 9.144351 7.002544
157 2 4.465789 9.373145 5.879475
158 2 5.476948 9.39943 6.8034
159 1 6.709535 10.19623 6.861843
160 2 7.690874 9.215799 6.432803
161 2 9.534412 8.145637 7.561406
162 1 8.279547 8.563968 7.472643
163 1 2.50906 0.179902 9.010409
164 2 2.219662 1.995006 8.245309
165 1 4.175962 2.230552 9.44255
166 2 2.738798 1.986269 9.610143
167 1 3.775615 0.186906 8.512575
168 1 4.570168 0.722288 9.372092
169 1 6.679628 1.736143 10.006964
170 2 7.001866 2.358436 8.609499
171 2 5.876603 0.763543 8.882305
172 2 9.027474 1.700252 9.699165
173 1 9.440641 2.39885 8.202461
174 1 8.029729 0.828035 10.307627
175 1 10.26014 0.802071 10.218761
176 2 1.561728 3.240873 8.234164
177 2 0.759788 4.08901 9.152064
178 2 2.43738 3.972216 10.139129
179 1 0.524134 3.110444 10.162211
180 2 4.486759 3.014313 8.454781
181 1 4.783254 4.690365 10.302705
182 2 4.171788 4.414538 8.508352
183 2 3.034831 4.793651 9.244577
184 2 6.051219 4.731766 10.422461
185 2 6.148585 3.498955 8.563922
186 1 8.423614 4.931862 8.169689
187 1 8.020908 4.605221 9.440602
188 2 0.321632 7.593935 10.394365
189 1 0.297145 5.236367 8.425988
190 1 1.293782 6.81535 10.10297
191 1 1.451535 5.831977 7.911497
192 2 1.121707 7.685984 8.345709
193 1 4.462289 7.615287 10.245974
194 2 2.833596 5.750714 8.193977
195 2 3.171949 6.982031 8.189663
196 1 4.645424 7.271668 7.855246
197 2 5.589936 6.244146 8.366115
198 1 6.335477 6.239044 9.593813
199 1 7.670621 6.063417 9.703905
200 1 9.94141 5.993858 9.466579
201 2 8.872664 6.817725 9.284397
202 1 2.465735 7.8955 8.972457
203 2 1.408711 10.131705 8.556805
204 1 0.555043 9.435927 9.293292
205 2 0.0 8.260665 9.05804
206 1 4.954217 8.274483 8.782248
207 1 2.690622 8.387635 10.334198
208 2 4.2965 9.486269 7.948465
209 1 7.347223 7.862177 8.407153
210 1 6.647132 10.267438 8.464942
211 2 7.658824 10.127744 9.277028
212 2 6.364856 8.458154 9.092956
213 2 9.091072 10.42786 8.223065
214 1 9.74467 10.258562 9.342547
215 2 9.17755 8.132296 9.647487
216 1 8.536609 9.136916 9.98188
