# LAMMPS data file written by OVITO Basic 3.11.3

4000 atoms
1 atom types

0.0 36.15 xlo xhi
0.0 36.15 ylo yhi
0.0 36.15 zlo zhi

Masses

1 63.546  # Cu

Atoms  # atomic

1 1 5.4142822533 1.6586860099 3.5151339046
2 1 0.0151281842 3.6388781607 3.6334895847
3 1 0.0496769565 5.458616578 5.3653829899
4 1 1.8825095247 1.674572716 0.1134253487
5 1 3.6877646123 0.0370614194 0.0315525696
6 1 3.7379813231 1.831215629 1.6249961575
7 1 5.3069480982 0.0437628381 1.7663174734
8 1 5.3325683225 1.7450612675 0.0708050084
9 1 1.6141121132 3.5823656803 5.4490396408
10 1 1.7324716635 5.4020334376 3.4526932689
11 1 1.8462718173 3.6064829727 1.939926934
12 1 3.663706674 3.3736105502 3.7851626311
13 1 3.5474575716 3.6457534209 0.0649393662
14 1 3.489117106 5.5155077462 1.756274955
15 1 5.4840901326 3.5307354519 1.6768462649
16 1 5.2020861074 5.3435300488 0.0084194477
17 1 0.1035971157 0.020084504 3.6340029143
18 1 3.7218361582 5.4697740731 5.4966466279
19 1 5.343581362 3.7471086249 5.4540327507
20 1 1.9400076438 1.7359286597 3.725495924
21 1 3.4832876271 0.1690752935 3.6533125399
22 1 3.7218791914 1.7656310779 5.4836941922
23 1 5.330841812 5.3170324716 3.6428450372
24 1 7.1523429741 0.0883889256 3.5838842498
25 1 7.1700920341 1.8397418607 5.4316701441
26 1 7.0476801722 3.6560245604 3.7130401946
27 1 1.7400081749 7.2199670202 1.7752267713
28 1 5.3668071214 7.1416918311 1.7149066923
29 1 0.0932564242 7.0224595314 3.5760706028
30 1 3.4550004914 7.1083232706 3.5123229586
31 1 7.1148165727 7.1415916245 0.1552402621
32 1 7.2280764136 7.1898488152 3.4665244878
33 1 3.6292184622 0.0607520096 7.1772005694
34 1 1.7830626027 5.4110579972 7.216992938
35 1 3.6744863162 3.5658183281 7.1961596842
36 1 5.5643897987 5.5816987061 7.1703593442
37 1 3.5675274831 7.1853523977 7.2178965057
38 1 10.86723516 1.8816268322 5.4873719237
39 1 7.3762844126 1.7911568857 1.7567050297
40 1 9.1858805151 0.0956178493 1.8253455743
41 1 12.482899285 0.0019209897 5.3445212227
42 1 12.828807473 1.7959521709 3.6867343405
43 1 11.064943827 1.8253381008 1.9781961268
44 1 12.847857998 5.5119752346 3.5402543234
45 1 12.569382818 1.8631937601 0.1687069714
46 1 7.2855510406 5.3994184077 5.3703740357
47 1 7.4242154645 5.4192954352 1.8599957884
48 1 9.0638647113 3.6176258527 1.6988164245
49 1 9.065688851 5.5261888406 0.1234547075
50 1 8.9950455197 3.4640441898 5.3449293239
51 1 10.976394324 5.4476887095 1.8357254045
52 1 12.621140115 3.6780583191 1.6866071484
53 1 9.0537691876 5.4411406784 3.5286050472
54 1 10.865588836 3.4916872543 3.6228975538
55 1 11.016075543 5.4543477634 5.5459503725
56 1 9.043806079 0.0948120582 5.5845016176
57 1 9.1052048669 1.66623232 3.4596186557
58 1 12.576898843 3.6221956084 5.2502820896
59 1 14.35381787 3.5476577254 0.0352782272
60 1 14.432877518 5.4876803496 1.7698124982
61 1 14.375258471 0.0672900912 3.6653496928
62 1 14.380370669 1.8323101007 5.5553020204
63 1 8.956107553 7.2290133067 1.7333286155
64 1 10.716169177 7.1964596277 0.0157314018
65 1 12.717902635 7.0764711822 1.8399863841
66 1 8.9798776381 7.1738392314 5.5014416784
67 1 10.786705867 7.1438050158 3.51056704
68 1 10.938259384 0.0184516548 7.2224718176
69 1 9.1773456142 5.5294985152 7.2259530075
70 1 12.638682846 5.5717482396 7.1012697568
71 1 14.392032251 3.6417713176 7.1795292163
72 1 14.388255994 7.2199644595 7.2176390084
73 1 14.55756894 0.1906500226 0.3111711738
74 1 14.497861755 1.8089750064 1.8336939975
75 1 16.256674661 0.0729036376 1.7952511337
76 1 16.276278951 1.834849894 0.1263759683
77 1 14.538294622 3.5283327147 3.6041435351
78 1 18.095580559 1.8092099597 1.714422537
79 1 14.556168768 5.5947938343 5.3083416604
80 1 19.784391569 1.8877976815 0.1024959366
81 1 16.147054668 3.6455522339 5.4201578571
82 1 16.207586886 5.4015318757 3.6462956566
83 1 16.273716219 3.6464284246 1.9218784445
84 1 16.138975249 5.5611127031 0.1428973667
85 1 18.082969666 3.6087710957 0.0904968142
86 1 17.958556022 5.4205262053 1.72942325
87 1 19.793840609 3.4619989547 1.7617453676
88 1 18.119579509 3.6682499292 3.5838142159
89 1 18.057529608 5.4046837375 5.3364030661
90 1 19.916800324 3.4995883768 5.3111172104
91 1 19.87425091 5.529040832 3.6532869386
92 1 16.358278795 1.914757346 3.6953709873
93 1 18.016586043 0.1262615303 3.7440457914
94 1 18.024624253 1.8481578554 5.4321036798
95 1 19.938063729 0.114715088 5.3230662869
96 1 19.746950362 1.8286979201 3.6783589283
97 1 21.596720032 0.0199832199 0.021190892
98 1 21.662462177 3.6294823754 0.0286010943
99 1 21.540850497 1.8394357159 5.2723634817
100 1 21.483828628 3.5825072988 3.655942169
101 1 21.531539923 5.3877861427 5.4023091693
102 1 16.390537484 7.198416578 1.8714220241
103 1 18.228685503 7.2001962695 0.1399748457
104 1 14.539521274 7.2098488759 3.4490791243
105 1 17.963794337 7.2234634554 3.4930822475
106 1 19.99073635 7.2047618439 5.4732199428
107 1 21.667727943 7.0996368856 0.1992653636
108 1 19.722785936 1.7164438825 7.1999442868
109 1 18.126027961 3.6778284201 7.2294095655
110 1 19.817410479 5.294421148 7.183092511
111 1 21.549411015 7.2093190753 7.1856626336
112 1 23.457091274 1.7742541481 3.7331696202
113 1 21.778100386 1.7502502388 1.8090026954
114 1 25.372734312 0.0332835533 3.4937223047
115 1 25.407132834 1.7620185657 5.3360049895
116 1 26.937231621 0.0065829952 5.4509681686
117 1 25.184963488 1.7864843959 1.8892219038
118 1 27.141335635 0.0051473043 1.6999337529
119 1 27.200311136 1.8710581104 3.5980057937
120 1 27.261180808 3.627886469 5.5766765692
121 1 21.710816411 5.4429828216 1.7911854888
122 1 23.469220115 3.5085904607 1.6865908705
123 1 27.134780679 5.2805175527 3.6624943555
124 1 23.46326495 3.5078330674 5.3195806177
125 1 25.329779407 5.5242261805 1.7897595105
126 1 27.085833647 3.6075730084 1.7982958347
127 1 26.792179868 5.5570513252 0.0343671703
128 1 23.461424853 5.3714031443 3.6758182852
129 1 25.285267677 3.6304595347 3.413987444
130 1 25.254410346 5.2997344018 5.5015450215
131 1 28.86386977 0.105999522 0.1350667017
132 1 28.826080713 5.4732968744 5.3720642953
133 1 23.433416869 7.1322674312 1.718715059
134 1 25.222695964 7.0111788803 0.0046440226
135 1 27.08209584 7.1770275178 5.4649011847
136 1 25.275450134 3.5168459707 7.1394804898
137 1 25.384698309 7.1317626378 7.1931939483
138 1 28.707831 7.1337109938 7.0639608262
139 1 34.344604165 0.0579055504 5.3896767099
140 1 29.003268925 1.8809826625 1.8300984774
141 1 30.625567622 0.1938633464 1.8209259317
142 1 34.296497355 1.7133648659 3.6322245791
143 1 29.03650393 3.7379283355 3.6331622323
144 1 32.589936215 2.0185296241 1.7607560576
145 1 34.363518114 0.0982115837 1.8090887783
146 1 34.244690803 5.5958801128 3.661770259
147 1 28.949929773 3.6894928292 0.0071046872
148 1 29.113292877 5.2733229293 1.8816532289
149 1 30.742569041 3.5929070261 1.9810253239
150 1 30.843878881 3.7528035383 5.6250008437
151 1 30.772305247 5.3414449645 3.794035976
152 1 32.551595029 5.3567554427 1.622081814
153 1 34.19062736 3.5190394325 1.756002343
154 1 34.322889889 5.5141134862 0.0465923375
155 1 32.285714218 3.4136835638 3.5265041285
156 1 28.936290671 1.8261140764 5.4627476245
157 1 32.586592037 5.4269294498 5.2948096824
158 1 30.764620388 1.9139241962 3.68322808
159 1 34.436893651 3.6502461672 5.5036632018
160 1 32.618838187 1.992577664 5.511028049
161 1 36.105150253 1.8769784968 1.8222044924
162 1 35.882099546 5.5595327116 1.7400353854
163 1 36.069931012 1.831940676 5.5684394097
164 1 32.667538091 7.0733761299 0.1532291112
165 1 34.233726462 7.1280043782 1.9247270269
166 1 28.94864384 7.1964303721 3.4270018919
167 1 32.372122453 7.2141782312 3.6738418321
168 1 30.724163988 1.9040394103 7.2281542197
169 1 32.342754932 0.0431303286 7.1861758027
170 1 34.363990653 1.8712549354 7.1199390207
171 1 32.459193451 3.617319554 7.1788365116
172 1 34.353024198 5.4973260457 7.20122294
173 1 36.081773483 7.1521443905 7.1842931638
174 1 5.4497385318 7.4163719665 5.4522850331
175 1 5.6816272653 9.0405407789 3.6300338787
176 1 0.0110920845 10.956115338 3.5968886509
177 1 1.7521091558 9.0146829417 0.0794537664
178 1 5.6979790966e-04 12.580080811 5.5817934387
179 1 3.7433804428 9.059911052 2.0066132756
180 1 1.9597490458 10.816952524 5.4128956242
181 1 5.3077194256 9.0527955653 0.1353536426
182 1 1.8658369316 12.66498048 3.6596329878
183 1 0.0782107078 12.681189368 1.7583326674
184 1 1.7595271693 10.731056399 1.8581643411
185 1 3.824986326 10.793450851 3.7384755498
186 1 3.7230887001 10.85079931 0.0424302661
187 1 3.5769397088 12.746638671 1.7576507958
188 1 5.442973551 10.837691314 1.750476782
189 1 3.3908890716 12.931338343 5.4378572255
190 1 5.371801838 10.764227592 5.4980469323
191 1 0.0125061438 9.0277437484 5.3496907942
192 1 1.5900396843 7.2881004746 5.477245894
193 1 1.6949841465 8.9033889741 3.5279582683
194 1 5.5381093034 12.693944579 3.7196831953
195 1 3.666345926 9.1371968073 5.3847765484
196 1 7.1959578763 10.871439889 3.6723338627
197 1 2.0798278212 14.444485888 1.889532955
198 1 5.4299208453 14.427433567 1.843861213
199 1 2.0287283197 14.291974153 5.5799472409
200 1 5.534388515 14.364640275 5.3266970491
201 1 7.2265979428 14.407256288 3.6073159287
202 1 1.9102394648 9.0262041363 7.1693693495
203 1 5.4916605707 9.1583651861 7.1346163184
204 1 0.0180073049 14.408771518 7.2030155403
205 1 3.7181576557 14.367414752 7.2105543214
206 1 7.1008383096 14.440168017 7.2025599234
207 1 12.783892094 8.9655448401 3.5854680043
208 1 7.3446008571 9.071817288 1.8113572128
209 1 12.592887185 12.760438626 3.6718157046
210 1 9.0895358969 9.0608791057 0.1731761891
211 1 7.3711518307 12.669397906 5.4264692607
212 1 10.85114675 8.9950594978 1.5848424162
213 1 9.0041179632 11.016777902 5.3173308166
214 1 8.9694282143 12.595955768 3.8116927839
215 1 7.2628282041 10.733240461 0.0895772877
216 1 7.261069567 12.65522662 1.743764496
217 1 9.1024283692 10.834687351 1.7813975039
218 1 8.9187856007 12.583447969 0.0525900841
219 1 10.951327815 10.999383159 0.1352775432
220 1 10.97006988 12.555475764 1.7430071513
221 1 12.637674021 11.018139758 1.8052200597
222 1 12.743133484 12.571647153 0.0603313838
223 1 10.763687737 10.769507993 3.7246225357
224 1 7.2711733086 8.9800942032 5.349626276
225 1 10.812565954 12.709305167 5.3722485502
226 1 8.9046330948 9.0067434811 3.4831764537
227 1 12.585215 10.896006871 5.286128137
228 1 10.505258917 9.0261452493 5.4571963387
229 1 12.89613475 7.288369622 5.3960880871
230 1 14.382222913 7.3928709622 0.3100403059
231 1 14.338698298 9.0527462195 1.9705915955
232 1 14.352913546 11.07698107 0.0029482979
233 1 14.40758013 12.781905628 5.4239883186
234 1 7.3654951944 14.410704473 0.003553846
235 1 12.679639123 14.404637715 1.6929163648
236 1 8.8868752238 14.411174339 5.4789790748
237 1 8.99549025 8.9292422018 7.2118772647
238 1 11.038462545 10.872456533 7.1842190473
239 1 18.296647505 12.52796455 5.4614821603
240 1 18.115126701 8.9150309797 5.6269974458
241 1 19.900190832 10.730255089 5.6077578347
242 1 19.793515114 8.9952205656 3.6248126469
243 1 14.538312977 10.65432845 3.5186531948
244 1 18.121665455 9.0398359636 1.8273880122
245 1 19.959174163 7.3358480887 1.7140997996
246 1 19.775936779 12.625586866 3.663719047
247 1 16.264893725 10.896349553 5.2758710467
248 1 14.546188482 12.6728057 1.8572222191
249 1 16.199951996 10.786921412 1.8312824133
250 1 16.266902215 12.683842914 0.0051935214
251 1 16.242150353 12.672103723 3.602208868
252 1 18.163186134 12.604509099 1.956826781
253 1 19.786834883 10.781196127 1.7059879
254 1 19.763960937 12.671037295 0.0682450763
255 1 18.389796058 10.753636523 3.6377365272
256 1 14.589940928 8.9473460293 5.5596510581
257 1 16.3374083 7.2618706006 5.3947443878
258 1 16.19390337 9.0329395052 3.5034555937
259 1 21.619463537 12.738518662 1.8063193749
260 1 21.534266785 10.867070706 3.5722553033
261 1 18.073320812 14.45960172 0.0143288023
262 1 19.930885039 14.381362082 1.7475451721
263 1 16.220139842 14.295263559 5.2685407455
264 1 18.042993694 7.3025619816 7.0761050373
265 1 19.91170019 9.0900713979 7.1451142857
266 1 16.25861422 12.739903333 7.1980058245
267 1 19.844063294 12.594033346 7.2149829588
268 1 21.619205454 11.018855372 7.2165002441
269 1 27.292397768 12.706297485 3.6203225194
270 1 21.781728116 9.0268044686 1.9090924959
271 1 21.826123683 12.669929885 5.5016757622
272 1 23.457178012 9.0234307841 0.0100427351
273 1 23.553742495 10.903273088 5.239295376
274 1 25.336152883 9.0422155833 1.936967184
275 1 27.193588367 7.2346705423 2.0151284198
276 1 27.145538967 8.9726604101 0.1046674716
277 1 23.442304766 12.63849059 3.5339996193
278 1 25.361924366 10.82879716 3.5500553669
279 1 23.633702836 10.756845097 1.7332019518
280 1 23.605052704 12.446241311 0.0359144053
281 1 25.318453413 12.649228063 5.5532633571
282 1 25.233555362 12.643300418 1.7834887275
283 1 27.108177662 10.785600781 1.5577463568
284 1 27.154410922 12.689042025 0.1191958286
285 1 21.700407851 7.5091468537 3.5762212687
286 1 21.730042776 8.8602967808 5.2655664258
287 1 23.339371812 7.2462141104 5.478390276
288 1 23.542031334 9.0302238742 3.6169718924
289 1 25.545253986 7.2441970035 3.6787012303
290 1 25.530379357 9.0207216208 5.3282900991
291 1 27.121029781 10.997935494 5.4658336686
292 1 27.197175027 9.0734123441 3.6687550852
293 1 28.846957422 9.0960245436 1.6383942665
294 1 28.862106625 12.656258306 1.9465782181
295 1 28.822579431 12.866623487 5.6503601956
296 1 21.688547375 14.357664822 0.0167443478
297 1 23.534665264 14.417256557 1.7772583338
298 1 27.181640641 14.38590428 1.7759758007
299 1 23.632216771 8.9097661949 7.1991126146
300 1 27.063122253 8.9336211747 7.2240303635
301 1 23.410215411 12.61605292 7.1387452935
302 1 25.444639255 14.424379396 7.1793882755
303 1 32.458190616 8.9726920416 5.3644934592
304 1 34.28477314 7.478184023 5.4759214677
305 1 30.711909817 7.2602961896 1.9547220633
306 1 34.55980834 8.8249861697 3.5892767311
307 1 28.987585081 10.690170914 3.7360470993
308 1 32.626154685 8.8615677161 1.8390162977
309 1 34.197227854 12.464535349 3.43865533
310 1 30.696648549 10.863650077 5.3233024548
311 1 30.716277135 12.580500208 3.5704358733
312 1 32.539414034 10.635803895 3.6441110559
313 1 30.806995874 10.906479838 1.8035802523
314 1 30.667279235 12.737099926 0.0848052565
315 1 32.523835965 10.79251466 0.0185792403
316 1 32.474946197 12.572100781 1.8421883715
317 1 34.334570819 10.995678506 1.894600253
318 1 34.242804322 12.778519349 0.0402596944
319 1 32.649140182 12.753269811 5.3668643089
320 1 28.973777355 8.8623909975 5.4688528933
321 1 30.853126757 7.3869496824 5.4198013589
322 1 30.646587181 8.9289460012 3.4548594101
323 1 34.376197188 10.854455695 5.4595576468
324 1 36.073621396 9.1785742318 1.9591645839
325 1 36.14109906 14.335853346 0.0567818389
326 1 30.82929498 14.36610435 1.5726067119
327 1 32.696593991 14.398661021 0.0204100249
328 1 34.22750805 14.398687336 1.8291529241
329 1 29.025764127 14.421441313 3.4663296928
330 1 30.778309245 14.318376732 5.481881795
331 1 32.501234757 14.252519964 3.8063991009
332 1 34.24921307 14.447619804 5.293507553
333 1 36.109723741 10.759784362 7.1559338396
334 1 34.483352938 9.0607925611 7.1835386493
335 1 30.824822682 12.575845765 7.219721727
336 1 32.544600471 10.973831284 7.078918123
337 1 3.6768851924 16.155814746 5.4711857696
338 1 0.0196549801 16.199299777 1.760046336
339 1 5.4761358632 17.929956497 5.3219828064
340 1 1.8443114467 16.166370546 0.0439737443
341 1 3.6963566756 14.543835757 0.0761540129
342 1 3.6470631428 16.477454255 1.6750089897
343 1 5.3188791628 16.179726997 3.7098884275
344 1 5.4809058729 16.206201943 0.156969266
345 1 0.0233248934 18.070894364 3.5541059792
346 1 5.2939982046 19.871672028 3.5522902225
347 1 1.6901966562 18.132796632 1.8554658665
348 1 1.9130874401 17.903678532 5.4085176825
349 1 3.5764030931 18.09622412 0.1402913616
350 1 3.5868611288 19.779651535 1.8852913707
351 1 5.2461723754 18.05912795 2.0472688307
352 1 1.7077256045 19.976939091 3.5334508679
353 1 3.5230353917 18.048875183 3.5698306846
354 1 0.1318631569 15.982679095 5.3986422501
355 1 3.3509991653 19.714299982 5.5143960004
356 1 1.7339590799 16.134397419 3.5234725035
357 1 3.6426333439 14.507833474 3.5752531931
358 1 7.2146085234 18.141395438 0.1415561099
359 1 7.039538891 16.343994965 5.3954143795
360 1 7.0978923573 18.122059399 3.5815039725
361 1 7.1677677029 19.912070713 5.4007294883
362 1 1.7093352531 21.619078147 1.7295548699
363 1 1.8827596806 21.684220487 5.2491000476
364 1 5.6080803161 21.456942372 5.3523263241
365 1 7.084677432 21.590035183 3.5738747858
366 1 1.6948787925 16.155048079 7.1312798196
367 1 1.8370963272 19.833459378 7.1703345698
368 1 6.8925499915 21.671005533 7.228884559
369 1 12.685649203 14.500484984 5.258861546
370 1 7.2830119705 16.184653633 1.8356656401
371 1 8.9929386821 14.649868981 1.7847527097
372 1 9.0240317935 16.084355518 0.072925924
373 1 12.603572982 16.12807098 3.5656677882
374 1 10.880726602 16.261274546 1.8372970351
375 1 12.720505392 18.233526838 5.384792115
376 1 12.624285401 16.250770017 0.1594572783
377 1 12.594804687 19.948749529 3.7114594272
378 1 7.3085015063 19.726085464 1.6964495967
379 1 8.9214495028 18.099575408 1.7947935255
380 1 9.1470870364 19.731127565 0.1031044169
381 1 10.861653263 17.92957636 0.0572195269
382 1 10.799146524 19.916247488 1.728911817
383 1 12.515624451 17.856906882 1.8918959987
384 1 9.1392514273 18.039166878 5.3751929494
385 1 9.1132624154 19.76760985 3.7011703551
386 1 10.7491148 18.080537065 3.5040476362
387 1 10.903650019 19.787163768 5.2951582309
388 1 8.9761281062 16.241978651 3.6011828262
389 1 10.84133495 14.582802625 3.6822075025
390 1 10.817118873 16.233285151 5.4126022042
391 1 14.249623427 16.311507492 1.7449865413
392 1 14.191449898 17.992118521 0.0339491393
393 1 14.354578304 18.17649338 3.7178917492
394 1 14.420732658 19.787523909 5.5126474518
395 1 12.721518802 21.651600407 1.7642082931
396 1 8.877490379 21.522615101 5.5191280794
397 1 10.778200333 21.65012219 3.6120786215
398 1 12.540752666 21.662327138 5.523829312
399 1 11.087989583 14.474194969 7.1723758121
400 1 10.90433451 21.57799186 7.0038564433
401 1 19.891971703 14.519017127 5.3492634887
402 1 19.972821036 16.177902744 3.579981974
403 1 16.425631212 14.552548572 1.7723037726
404 1 16.22517181 16.242682245 0.1109697294
405 1 19.909121598 18.166298769 5.3413019284
406 1 18.29131918 16.33084847 1.7686856476
407 1 19.885558099 19.8414806 3.3908607194
408 1 19.879794808 16.263867258 0.0331579734
409 1 16.378022637 18.016317307 5.5766542642
410 1 14.588759034 19.79080785 2.021463743
411 1 16.063597854 18.006723897 1.8275497834
412 1 16.231270234 19.68744782 3.5739147347
413 1 17.994577895 18.11747423 3.60281796
414 1 17.984478052 19.928353392 1.74435811
415 1 19.880764585 18.125122216 1.8211950419
416 1 20.056726348 19.939007531 0.0802700907
417 1 14.465018741 14.492125842 3.5441166555
418 1 14.46852672 16.232979816 5.3326389228
419 1 18.271622758 20.039971956 5.2857704013
420 1 16.164202775 16.303747129 3.6789034509
421 1 18.127250654 14.755458461 3.7121347166
422 1 18.148145133 16.245997954 5.7907316601
423 1 21.63541496 16.343386548 5.2379968632
424 1 21.640907906 18.32934312 3.502114682
425 1 19.938393172 21.617637393 1.8168948805
426 1 16.443213147 21.60551898 5.4374410822
427 1 18.148751223 21.692147865 3.7860978087
428 1 21.624263161 21.625227443 3.6815965542
429 1 14.478735955 14.462938279 7.1249305688
430 1 16.26910584 16.252156215 7.1409763641
431 1 16.31806656 19.787537957 7.0320409888
432 1 21.691770426 19.925077938 5.4627027059
433 1 21.81477971 16.279853914 1.6525640728
434 1 23.543605894 18.055326871 5.40873984
435 1 23.563756884 19.68866471 3.7108187705
436 1 25.322124399 17.930227047 3.6845123424
437 1 25.249619758 16.397861639 1.6948472585
438 1 25.325963473 19.82265497 5.3965185232
439 1 27.007303527 16.101900389 0.0895684189
440 1 21.789710558 18.153382793 0.0212898885
441 1 21.864551049 19.806632064 1.960358168
442 1 23.487279162 17.979817177 1.6656852411
443 1 23.432253005 19.866462592 0.0567311318
444 1 25.10236404 18.222565578 0.1191650991
445 1 25.222892293 19.79677178 1.8624095597
446 1 27.268632748 18.015686649 1.7756875312
447 1 27.181900001 19.807341598 0.1636127606
448 1 21.8048333 14.555124629 3.6318754044
449 1 27.217835309 18.190838441 5.5124016378
450 1 23.491485848 14.497495732 5.4078023936
451 1 23.588815676 16.254701097 3.5415607231
452 1 25.311892372 14.54389528 3.4917506607
453 1 25.323585143 16.416905479 5.5248761075
454 1 27.20980679 14.625936676 5.4646092659
455 1 26.986901595 16.248333938 3.5496704124
456 1 27.036717051 19.954362267 3.4905632144
457 1 28.867953422 16.136268786 1.8774048456
458 1 28.82977177 19.934074907 1.7266708722
459 1 28.806651662 18.004786698 3.6690873281
460 1 28.779648148 19.863340497 5.4078864687
461 1 23.368099688 21.626285532 1.9303993671
462 1 23.617018238 21.634513005 5.5148745678
463 1 27.019023835 16.364398569 7.186471613
464 1 23.306652598 19.796209335 7.036795389
465 1 27.060003211 19.947423753 7.0474220981
466 1 28.813163469 14.658637034 7.2050977003
467 1 28.844435675 18.106283466 7.1006461587
468 1 30.872658729 18.01666715 5.2745029253
469 1 28.990036147 16.232916967 5.4366290139
470 1 30.573162531 19.775564965 3.6080829767
471 1 30.759505639 16.014680965 3.676073625
472 1 32.343416866 18.014686712 3.555916742
473 1 32.496708834 16.391590816 1.8327229407
474 1 32.534219108 16.17082658 5.5473527754
475 1 34.342460501 16.14288945 -5.0640217351e-05
476 1 32.402954984 19.808614983 5.379224388
477 1 34.281084669 16.235239252 3.8575673517
478 1 30.817215863 17.999012166 1.9106792706
479 1 30.739951927 19.845576964 0.1943191704
480 1 34.366481936 18.091423302 5.4552758075
481 1 32.453703883 19.910486202 1.6384854195
482 1 34.433560076 17.974456289 1.8556882205
483 1 34.342850171 19.975370201 3.5453385111
484 1 36.080295421 19.886927707 1.9563291231
485 1 36.084623718 14.520327619 3.7968444623
486 1 36.049426032 19.848000711 5.5372475465
487 1 30.665014738 21.640858434 1.8029917892
488 1 32.719348953 21.635060752 3.7042033087
489 1 34.364932882 19.991749026 7.2153215274
490 1 28.919945779 21.612925294 7.2065160671
491 1 32.471222399 21.678011921 7.2208637063
492 1 0.1144546779 21.772889226 0.0526179115
493 1 0.0373135956 23.481480414 1.586606849
494 1 0.1316872474 27.106539554 5.3094066189
495 1 1.5427785218 23.401972527 0.2331156751
496 1 3.5225730734 21.909714554 0.0158890663
497 1 3.5423145394 23.589781996 1.851274415
498 1 5.4191466199 21.778875009 1.7493970985
499 1 1.8552438934 25.385650061 5.3616735288
500 1 0.0847418023 25.222904379 0.0564057745
501 1 2.0112633246 27.107739245 3.51603084
502 1 1.7249781127 25.281725916 1.7958686748
503 1 1.8358410039 27.076996496 0.0279126865
504 1 3.5268953622 25.435061727 0.0431159804
505 1 3.5896781802 27.16719462 1.8755008397
506 1 5.4550303526 25.165475264 1.7558525878
507 1 3.5484032106 25.202947909 3.6173688289
508 1 0.112090709 21.722676763 3.615174502
509 1 0.0457836284 23.556953442 5.4310532594
510 1 3.7607892734 27.138586091 5.3132967318
511 1 1.842421033 23.536656198 3.6314916848
512 1 3.4633559928 21.753712761 3.5979577766
513 1 3.6724416649 23.435999918 5.4528934422
514 1 5.4151273348 25.357919508 5.1506698712
515 1 5.2890374028 23.592462599 3.5408673099
516 1 5.5448266977 27.123540822 3.4414189168
517 1 7.1540037177 23.287839652 1.76500075
518 1 7.1614474773 25.322600877 0.0646451049
519 1 7.2242772293 27.072667641 1.8122576523
520 1 7.2056442569 27.132893984 5.3927605553
521 1 1.825573648 28.823115232 1.7791301034
522 1 5.320474641 28.873715916 5.4426851373
523 1 7.1471685887 28.7763082 0.2191036304
524 1 3.6357024132 25.498154362 7.0434439697
525 1 5.3921513222 27.032186805 7.1006071164
526 1 0.0135567147 28.830622782 7.0967482841
527 1 7.3759141551 21.854447833 0.0049246523
528 1 8.9028198408 23.638091145 3.6557186892
529 1 9.0697881781 21.812811457 1.8005485739
530 1 10.747869009 27.043204828 5.3236925227
531 1 10.892280468 21.778005077 0.0165359324
532 1 10.749605848 23.583878783 1.7443721808
533 1 10.856772055 23.564473343 5.5761631247
534 1 12.647857727 23.615899463 0.0690079354
535 1 12.624359657 25.461162779 5.4430124998
536 1 12.564787343 23.556521893 3.5825043219
537 1 9.3682325165 25.292323687 1.8425958393
538 1 7.3986950126 25.355517648 3.643278652
539 1 12.676019205 27.206510046 3.6292052082
540 1 10.8004083 27.057052828 1.7936517928
541 1 12.836521291 25.281241713 1.9040408275
542 1 8.8970425942 25.428789421 5.5196651115
543 1 8.9122493202 26.925673539 3.5012124371
544 1 7.2398375818 23.511506581 5.2560126272
545 1 10.800870192 25.446118145 3.518435437
546 1 14.381016397 23.422309861 1.7093309892
547 1 14.417962466 27.053684187 1.795064447
548 1 14.378514039 21.711236835 3.5995391084
549 1 14.390476165 25.182131517 3.6819664236
550 1 14.447877724 27.15812584 5.4596546694
551 1 12.689868276 28.798578382 1.9227334896
552 1 7.2353921671 28.847371736 3.7020793355
553 1 10.753912605 28.894632968 3.5856297983
554 1 8.9225840175 23.6106668 7.1467963492
555 1 12.732951452 23.401094335 7.2276728133
556 1 10.782047668 25.146357289 7.0958194161
557 1 12.746762462 27.211017294 7.125128446
558 1 14.402399257 21.893886154 7.141634606
559 1 7.3015198554 28.876071798 7.2055600655
560 1 16.378765495 23.448234457 3.5683443665
561 1 18.264173057 27.163041248 5.4011374347
562 1 16.13384739 21.759191161 1.7408040317
563 1 18.051826084 23.489791732 5.2445544413
564 1 18.185292171 21.775425684 0.0250225179
565 1 18.077219436 23.402266615 2.0067402989
566 1 19.674316597 21.777353927 5.5539006046
567 1 19.9369905 23.403061335 0.0131313191
568 1 19.891633049 23.601564413 3.607270692
569 1 19.921758291 25.294366778 5.3609713209
570 1 16.161516387 25.35655856 1.8234685371
571 1 19.807012393 27.102768259 3.579522297
572 1 18.060275195 25.359693536 0.0732429447
573 1 18.020777818 27.055647075 1.8769537625
574 1 19.914233825 25.279555529 1.8319028929
575 1 16.215492071 25.257725278 5.5852785665
576 1 16.358467098 27.127385865 3.5323784396
577 1 14.461152114 23.488642509 5.4281213842
578 1 17.991743462 25.340391744 3.4740932362
579 1 21.637631696 23.577641646 1.8605756008
580 1 21.637363821 23.546198452 5.3328520309
581 1 21.607434874 25.188497061 3.7293339879
582 1 21.663461583 27.191775339 5.5046316028
583 1 16.474151144 28.895489976 1.7030810871
584 1 18.34572543 28.775239241 0.0503794087
585 1 19.95958251 28.697299374 1.904683431
586 1 14.534730207 28.772398789 3.4072002675
587 1 18.137630165 28.855832855 3.6056095585
588 1 19.925912803 23.598761474 7.0197478832
589 1 16.250046064 27.169766834 6.9976170709
590 1 18.178443761 25.202812809 7.1674027642
591 1 21.665885053 25.314939668 7.1673540219
592 1 26.970486569 21.690041088 5.5639585211
593 1 27.113651141 23.659807793 3.5457540717
594 1 27.093958553 25.190426208 5.552058571
595 1 23.53902875 23.488409575 0.0374739469
596 1 27.035170746 27.003876981 3.5826735503
597 1 25.226685534 23.500436163 1.8323594045
598 1 27.080872107 22.082015792 1.6699941776
599 1 23.566169476 25.078841222 5.4228686653
600 1 21.724348106 25.218548908 0.0477283177
601 1 21.758986906 27.339994245 1.7700843694
602 1 23.483630424 25.209093482 1.8296475928
603 1 23.283340193 27.244590124 0.1088612674
604 1 25.327386125 25.212370885 0.1477361779
605 1 25.348762931 27.101245401 1.7599798616
606 1 27.081573508 25.248658227 1.9136647554
607 1 27.063309821 27.074045807 0.1176973314
608 1 23.363548481 27.060156195 3.5056549508
609 1 25.344246037 25.294817716 3.8584116
610 1 25.286782075 27.254099174 5.400874326
611 1 23.395803926 23.607274565 3.6929177465
612 1 25.212826954 21.729047873 3.5578979557
613 1 25.375677267 23.720673284 5.4301098534
614 1 28.759049511 23.492152109 5.6557039007
615 1 28.530151158 25.456252985 3.6856338701
616 1 28.810804098 27.164878276 5.4200861822
617 1 23.485512151 28.91178928 1.9687939321
618 1 21.792475573 28.886866382 3.5569337073
619 1 25.237219811 28.874002424 3.6784702156
620 1 25.385423788 21.688234694 7.2262007452
621 1 26.961602466 23.551506087 7.1858392301
622 1 23.515744924 27.18746701 7.2049087025
623 1 25.348807567 25.476216253 7.2175977844
624 1 28.916049489 25.255267801 7.0618218024
625 1 25.374591394 28.764246758 7.2237283223
626 1 34.385544418 23.493074831 3.6359716773
627 1 28.964185101 23.453174051 1.9450052775
628 1 34.44126915 25.12149454 5.5787949801
629 1 30.671959933 23.580870346 0.0613571082
630 1 34.35670833 27.15019211 3.3987889624
631 1 32.358178142 23.487321494 1.7709024855
632 1 34.141845935 21.713163523 1.8227171505
633 1 30.769406018 25.271103966 5.40450065
634 1 30.659299552 27.275242593 3.6544571613
635 1 28.921716035 27.001901693 1.9096992058
636 1 30.716531422 25.32069443 1.9078498116
637 1 30.737731947 27.106255302 0.0411077575
638 1 32.407444018 25.255774571 0.2751549901
639 1 32.410850032 27.022154946 1.7349702229
640 1 34.231242664 25.289674921 1.8080723297
641 1 34.401829141 27.347960277 0.2294599759
642 1 28.93167322 21.720104487 3.7475801458
643 1 32.411979151 25.174985571 3.6564577499
644 1 30.682284663 21.829464936 5.5370257015
645 1 30.591533836 23.327468811 3.603014282
646 1 32.692247272 26.989046564 5.5294928781
647 1 32.559737379 23.631301397 5.3575772506
648 1 34.369027426 21.750413068 5.4837037702
649 1 36.092156515 26.91983869 1.7144583828
650 1 35.993366642 25.443708325 3.4640023124
651 1 28.971147281 28.830761548 0.0187000487
652 1 30.790014529 28.893755074 1.9441303353
653 1 29.030610949 28.908334643 3.5127806416
654 1 30.801331777 28.780886974 5.5321233786
655 1 32.377773914 28.795636451 3.469136211
656 1 35.977845505 21.827175161 7.2303526797
657 1 30.850768034 23.43685877 7.1070769546
658 1 34.497087066 23.5534706 7.1985983766
659 1 31.009666879 26.997974797 7.1642528691
660 1 32.616057012 25.212634111 7.1306726084
661 1 5.3130342468 32.432747427 5.405483558
662 1 5.4923768596 30.675540033 3.6508559743
663 1 0.10452582 32.543627965 3.4034487191
664 1 1.9073415099 30.745722945 0.0586012321
665 1 5.4067163499 34.441358524 3.5200819993
666 1 3.7249434767 30.657944155 1.6852259133
667 1 5.3036911656 28.992240647 1.8233025354
668 1 1.6255712801 32.429806364 5.4972206361
669 1 1.861793775 34.368917447 3.7309708506
670 1 3.5441992171 32.366099763 3.7936489856