 # Fluorite UO2 oriented X=[100], Y=[010], Z=[001].
  
       12000  atoms
           2  atom types
 
      0.000000000000      54.500000000000  xlo xhi
      0.000000000000      54.500000000000  ylo yhi
      0.000000000000      54.500000000000  zlo zhi
 
Masses
 
            1   238.02891000            # U
            2   15.99900000             # O
 
Atoms # atomic
 
         1    1       54.461054167539       0.036312570655      54.481630945866
         2    1        2.762994243655       2.716916335417      54.471436821333
         3    1       54.497678259667       2.695118883769       2.732869949250
         4    1        2.675101089023      54.489451391068       2.713565014067
         5    2        1.352803744457       1.353775143727       1.349462149288
         6    2        4.058786308387       1.413282086053       1.401525826048
         7    2        1.387846378378       4.039993508210       1.408174290974
         8    2        4.115067133477       4.085047829129       1.366834401073
         9    2        1.355911768797       1.372393681287       4.142204809358
        10    2        4.124208965616       1.406628369690       4.131474472023
        11    2        1.390379146457       4.092743684520       4.074104553424
        12    2        4.037581438199       4.069654142704       4.098551902823
        13    1        5.502596169958       0.006624793748      54.457298009906
        14    1        8.218122974460       2.702962670196      54.457562695132
        15    1        5.395816304136       2.712546491290       2.760976319448
        16    1        8.223918538771      54.468435644844       2.715043322150
        17    2        6.799508502953       1.419963246230       1.397763766639
        18    2        9.550526110143       1.355219010646       1.318764728867
        19    2        6.840188586097       4.144960726005       1.353866856776
        20    2        9.588696186550       4.051452012237       1.342506741395
        21    2        6.784621370423       1.409408183916       4.050101138189
        22    2        9.565916163226       1.419423603730       4.071523551495
        23    2        6.793074304195       4.053861803911       4.063955194217
        24    2        9.574955352279       4.106282879920       4.064277498159
        25    1       10.856295410377      54.498050318526       0.050492045712
        26    1       13.620015946101       2.726896185712       0.019688837872
        27    1       10.843100643883       2.683287023951       2.771112297811
        28    1       13.579249229416      54.478234214552       2.688446016155
        29    2       12.260072296486       1.354936776354       1.416994246199
        30    2       14.942896631663       1.359519262895       1.307261283070
        31    2       12.293124838015       4.125923371768       1.342244020418
        32    2       15.031526643521       4.132091270841       1.375458957822
        33    2       12.242113794756       1.350366133895       4.071440500007
        34    2       15.030840042889       1.348349116659       4.032043229130
        35    2       12.316424193892       4.078931124157       4.137625402018
        36    2       14.949501447630       4.043080140328       4.106851301755
        37    1       16.334867220684      54.468838361801      54.488316694689
        38    1       19.056698233824       2.711416457793       0.025588453369
        39    1       16.300665545855       2.681342482991       2.686765250223
        40    1       19.057915242066      54.468321661451       2.706868548263
        41    2       17.713162589860       1.350602076708       1.340364711187
        42    2       20.436740404666       1.315364459400       1.307810459217
        43    2       17.655237434136       4.076497488140       1.334640251462
        44    2       20.398904174212       4.060964861303       1.361660117652
        45    2       17.715438990791       1.340668448330       4.104445209090
        46    2       20.486766224340       1.385961680882       4.068945332351
        47    2       17.729428361992       4.142019240861       4.088265567521
        48    2       20.412257334281       4.094415538210       4.062095715471
        49    1       21.804846928582      54.462915659800       0.031469300114
        50    1       24.570396311854       2.693404466122      54.467622211869
        51    1       21.746643054741       2.696406231214       2.683802117780
        52    1       24.493717363755      54.499381541529       2.710855479793
        53    2       23.166207850829       1.332350387000       1.346734798916
        54    2       25.855091968828       1.402300025439       1.315083832665
        55    2       23.113467159593       4.130488235274       1.354388713684
        56    2       25.866639169189       4.080826621791       1.329304964984
        57    2       23.206962444294       1.376654204671       4.079614266353
        58    2       25.868119828223       1.320342508447       4.031289830250
        59    2       23.196919568976       4.072571913295       4.073194738019
        60    2       25.846577229059       4.035755380874       4.098168331430
        61    1       27.294468722875       0.031257108674       0.031697517833
        62    1       30.008920311216       2.700781151482      54.481858475056
        63    1       27.274344489822       2.681510072470       2.776148873809
        64    1       30.024653465349       0.045222926226       2.738153362384
        65    2       28.565386295768       1.315027282959       1.410810492232
        66    2       31.353053410679       1.379161422156       1.382765872092
        67    2       28.652399909570       4.043267825127       1.351494149028
        68    2       31.309139682261       4.131867342466       1.412497900900
        69    2       28.629559876757       1.382548242892       4.087791503582
        70    2       31.385498319517       1.373493176881       4.080555707809
        71    2       28.559936917459       4.108619886993       4.077173534871
        72    2       31.306365473681       4.089160405464       4.048985733802
        73    1       32.692855616544       0.037110253546       0.025046523749
        74    1       35.444821249593       2.753550113341       0.034048393388
        75    1       32.675976065335       2.733153020552       2.725857126130
        76    1       35.411379670238       0.033948581621       2.703129303034
        77    2       34.054666925462       1.407118619441       1.306282255818
        78    2       36.742970924679       1.372328381445       1.346335040113
        79    2       34.036716492774       4.039769959643       1.361471879833
        80    2       36.807668717005       4.128131105280       1.309905558521
        81    2       34.110014284993       1.385306891883       4.045004962500
        82    2       36.798427767145       1.378017950708       4.112178527472
        83    2       34.103070804502       4.074365514811       4.076965155302
        84    2       36.756125364441       4.058917206493       4.066135448483
        85    1       38.103056540510       0.034926909081      54.498269349382
        86    1       40.874255831454       2.752492367097       0.023920486595
        87    1       38.098317830506       2.746474770917       2.724504533525
        88    1       40.897027881426      54.483987216987       2.707998646874
        89    2       39.479962316870       1.383886539106       1.365485562927
        90    2       42.183497189274       1.332931241158       1.367170650698
        91    2       39.485522815349       4.080634357840       1.340191550125
        92    2       42.200258861900       4.104183864351       1.370114829004
        93    2       39.523950429740       1.348073607512       4.123220486983
        94    2       42.227910602617       1.377547031387       4.052402864454
        95    2       39.498954345481       4.030523722612       4.051266306553
        96    2       42.224021076743       4.079088628501       4.082035548913
        97    1       43.626798504402       0.010317702042      54.491564790512
        98    1       46.332047352553       2.751688890778       0.018611051892
        99    1       43.651366209728       2.681775456274       2.766966671842
       100    1       46.381855410340       0.041431600221       2.770076833161
       101    2       44.942437046762       1.367014040974       1.384265759327
       102    2       47.735256160890       1.377621990073       1.353162934908
       103    2       44.938284105467       4.064448983265       1.331817844772
       104    2       47.632076612565       4.055747778825       1.406452584537
       105    2       45.016794524255       1.384121226525       4.092322791484
       106    2       47.674176829171       1.348540307844       4.064392698028
       107    2       44.961866541859       4.105630363356       4.068401074583
       108    2       47.659030671892       4.050299662803       4.108826145833
       109    1       48.995186800261      54.455359439340       0.043028245103
       110    1       51.723769137616       2.670158197344       0.050044927850
       111    1       48.998754029496       2.772312166401       2.740819659325
       112    1       51.776314607833      54.466267655546       2.755560010841
       113    2       50.399787210845       1.324140714550       1.317459416399
       114    2       53.164167432990       1.315338386787       1.416462766350
       115    2       50.401580491803       4.091439678020       1.406487044369
       116    2       53.111936559202       4.032722420099       1.321267920806
       117    2       50.444723860510       1.395859587857       4.116322864187
       118    2       53.108744330224       1.350268436949       4.132378008287
       119    2       50.366726696477       4.031522061737       4.091591798055
       120    2       53.128030717747       4.115646147058       4.055463537891
       121    1       54.469793392866       5.471782415230       0.001441784129
       122    1        2.765835439234       8.179882441402       0.041759177879
       123    1       54.486601242740       8.125516041474       2.743654598415
       124    1        2.733794512572       5.396147989168       2.693631396301
       125    2        1.333484035456       6.822317264212       1.336442781020
       126    2        4.091407542603       6.764042961477       1.385334996929
       127    2        1.416011864521       9.508000822211       1.320200096365
       128    2        4.058670021819       9.507847853153       1.419679811812
       129    2        1.382258161441       6.816405284502       4.053434606928
       130    2        4.134339060536       6.818310813375       4.058566672592
       131    2        1.312341409440       9.495284174568       4.031467191379
       132    2        4.048208205649       9.538409926428       4.097397575724
       133    1        5.416625659180       5.505604266688       0.043161278372
       134    1        8.211290385017       8.223774168042      54.442998007088
       135    1        5.466093186782       8.232063532939       2.738657079427
       136    1        8.130961992521       5.403158656938       2.769143795017
       137    2        6.835989888074       6.815235472511       1.331113533508
       138    2        9.514069643156       6.805193626309       1.354941327112
       139    2        6.759187553160       9.515448279675       1.370002857413
       140    2        9.571519546341       9.556853887739       1.369156640713
       141    2        6.816847803222       6.834773060235       4.046350966323
       142    2        9.493079941431       6.812766735113       4.075094882053
       143    2        6.855582220892       9.587178036556       4.063291255537
       144    2        9.534471172370       9.515040974779       4.074180624049
       145    1       10.931877724391       5.426609497497      54.496871591551
       146    1       13.627826766507       8.213829792730       0.043463535966
       147    1       10.901605638372       8.179424062939       2.768995670739
       148    1       13.662858335275       5.393503960319       2.780339996356
       149    2       12.317183290851       6.786977512100       1.396800848628
       150    2       14.953005859208       6.861568237419       1.384165112254
       151    2       12.303228922747       9.508457497432       1.339129298363
       152    2       14.977685104053       9.512144000334       1.362267910794
       153    2       12.275325144381       6.820789772881       4.091574313130
       154    2       14.970780472002       6.809215959767       4.069462702552
       155    2       12.236297381176       9.574259762471       4.031048996577
       156    2       15.008072970172       9.577222407379       4.088540574611
       157    1       16.401312842240       5.395906486160      54.449225608747
       158    1       19.059547425807       8.186577116705      54.465535532545
       159    1       16.310035025761       8.166986531258       2.767353869288
       160    1       19.110548766484       5.471461969699       2.761760765889
       161    2       17.745184754636       6.763902500907       1.391201710595
       162    2       20.481828924901       6.767136769014       1.370980880105
       163    2       17.728641517644       9.587627766597       1.311523205143
       164    2       20.409560592708       9.505830014884       1.401533101125
       165    2       17.698347830262       6.855070292265       4.092549404310
       166    2       20.457879368510       6.846145802846       4.054078785448
       167    2       17.726534697046       9.506306457268       4.080688361302
       168    2       20.434386925084       9.593104569511       4.073180384880
       169    1       21.850062618913       5.417628624838      54.446632783314
       170    1       24.542228840186       8.203236870989      54.493399612686
       171    1       21.747783915251       8.231671016900       2.751785610293
       172    1       24.538464456588       5.416328729429       2.713710030339
       173    2       23.139067030524       6.833543399880       1.406148637023
       174    2       25.884255667298       6.853150400133       1.413640225056
       175    2       23.220302910515       9.480315225402       1.366552035887
       176    2       25.927209915876       9.590768766552       1.388484826379
       177    2       23.119868818255       6.808033400060       4.045429788031
       178    2       25.906907361473       6.822156364439       4.107013496084
       179    2       23.217184855878       9.505571920695       4.034013236381
       180    2       25.838510760645       9.521545562538       4.071239731860
       181    1       27.266623117406       5.436578677698      54.497290056169
       182    1       30.018422685127       8.201537142007       0.052326322080
       183    1       27.296644540322       8.157075152381       2.693770633806
       184    1       30.004763230785       5.413460426422       2.727769805362
       185    2       28.636852589542       6.817811408405       1.410398812352
       186    2       31.299044592052       6.867565475485       1.380726926024
       187    2       28.623692523792       9.497874958478       1.409945053900
       188    2       31.281568473300       9.541684959315       1.407586516196
       189    2       28.599129750950       6.860083242545       4.066101623987
       190    2       31.350717175323       6.820418444860       4.144085050523
       191    2       28.572957492273       9.547349706719       4.124633392181
       192    2       31.349722946407       9.550011818490       4.113384871348
       193    1       32.720893054520       5.431588312891       0.048912617898
       194    1       35.481780821451       8.214714117986      54.475627504141
       195    1       32.688219748377       8.197693016818       2.766707819394
       196    1       35.471020127485       5.482276967529       2.697764850569
       197    2       34.076295293031       6.811589967277       1.361041860321
       198    2       36.806650739511       6.863284648364       1.393584393290
       199    2       34.118800011057       9.490593337010       1.399892620983
       200    2       36.781242081269       9.542530219748       1.390659263011
       201    2       34.044026332188       6.778978955621       4.070594522204
       202    2       36.835932484064       6.787635912801       4.110737059918
       203    2       34.104104835742       9.555736750747       4.054122655567
       204    2       36.740422970049       9.554351953625       4.033933390350
       205    1       38.145591842356       5.487627641326       0.035446265470
       206    1       40.845257733993       8.135616078252       0.056295085989
       207    1       38.095777366941       8.194541683579       2.706614121895
       208    1       40.886011620497       5.468469288366       2.764757145586
       209    2       39.493665185527       6.780759121670       1.351667739902
       210    2       42.258358668904       6.853088742441       1.391629780760
       211    2       39.475252878341       9.486102944887       1.327906406592
       212    2       42.290215314411       9.501912598302       1.332141006808
       213    2       39.457004457643       6.821302400832       4.037692071464
       214    2       42.285217869951       6.844985487496       4.054184970025
       215    2       39.548432194800       9.574457034298       4.092044420694
       216    2       42.253537027699       9.587667614027       4.056604614547
       217    1       43.630240936871       5.425338392193       0.049201348218
       218    1       46.309546250680       8.174237345679       0.023405478272
       219    1       43.590186791166       8.231816719118       2.673552826532
       220    1       46.297218425153       5.480185692326       2.724199868385
       221    2       44.972130166442       6.849642737137       1.393519400418
       222    2       47.688300159651       6.838861593211       1.419116698725
       223    2       45.013734566518       9.563688130867       1.400932392965
       224    2       47.678176482015       9.491050930045       1.330240092339
       225    2       44.967467676430       6.755937960654       4.127474465894
       226    2       47.739716319121       6.787733588331       4.134264249952
       227    2       45.005189907513       9.565948145246       4.033847432158
       228    2       47.739248871878       9.536572527035       4.043560316163
       229    1       49.018224729049       5.507728568205       0.055666848286
       230    1       51.772260188545       8.213350312341      54.459591372298
       231    1       49.087920715059       8.166703757858       2.707469821665
       232    1       51.737244305743       5.392566537904       2.676156100792
       233    2       50.393924037218       6.829110101101       1.330300475029
       234    2       53.144145019934       6.853986521290       1.315996786129
       235    2       50.422375657020       9.568235752371       1.410992050275
       236    2       53.142938436005       9.542543531135       1.317627958854
       237    2       50.423117162098       6.784203268174       4.128350891815
       238    2       53.160170431419       6.856479126134       4.037278769269
       239    2       50.396421283947       9.522334534890       4.101064895290
       240    2       53.142202926206       9.566117284790       4.099800373955
       241    1        0.021603892142      10.931819984708      54.483896048669
       242    1        2.706167390520      13.671268921160      54.498110573728
       243    1       54.485185374627      13.626986459347       2.723422552540
       244    1        2.777694060481      10.945542155149       2.687746372202
       245    2        1.358967159040      12.318395457917       1.340464452048
       246    2        4.073067446158      12.258232687246       1.402660181805
       247    2        1.372521116222      14.976648579389       1.373630805636
       248    2        4.139485016575      15.006904816929       1.393561425419
       249    2        1.385307456213      12.310909005623       4.094027955852
       250    2        4.036605052688      12.227177054007       4.051798952448
       251    2        1.393194445191      14.981760652412       4.054289748987
       252    2        4.094566814287      14.945861069226       4.118120185505
       253    1        5.480590875738      10.863832488171       0.028134397340
       254    1        8.186353330267      13.571531814115       0.002368615066
       255    1        5.414815522751      13.639526105375       2.735809028982
       256    1        8.196345010300      10.890294829726       2.760033321171
       257    2        6.796715844481      12.282861625141       1.397254799894
       258    2        9.503279302647      12.255434554294       1.333380646577
       259    2        6.807153530067      14.936495084421       1.348583178093
       260    2        9.568666005538      15.037699021109       1.419378692829
       261    2        6.795081744653      12.290371602039       4.079207096846
       262    2        9.540388653857      12.310257663384       4.058877613175
       263    2        6.805299139647      14.946498845885       4.086357693748
       264    2        9.499822698042      14.985517786563       4.119975266834
       265    1       10.899199887083      10.883031188956       0.001177162924
       266    1       13.631945668089      13.568081974523       0.051426442453
       267    1       10.860400571266      13.682726221444       2.760085775846
       268    1       13.583133160045      10.897020576632       2.768236096209
       269    2       12.214473162241      12.216940279531       1.310161452274
       270    2       14.968835123977      12.309348299816       1.368847276376
       271    2       12.290799712019      14.959058965724       1.318010536538
       272    2       14.965131797849      14.969745716248       1.357246795525
       273    2       12.293926321699      12.314658027437       4.084923922326
       274    2       14.970933614726      12.302758023676       4.116146965972
       275    2       12.225745408142      14.969766179969       4.044612590666
       276    2       14.953167372857      14.992254569249       4.041565502799
       277    1       16.308310543438      10.856626022304       0.030844801076
       278    1       19.075956917954      13.584208492722       0.046573805992
       279    1       16.307264714485      13.606151029678       2.699095754488
       280    1       19.076266874035      10.942857604607       2.713331885623
       281    2       17.768927218502      12.218086809775       1.337009603574
       282    2       20.489355198785      12.311057305618       1.379270367888
       283    2       17.767683908388      14.975630253489       1.336644360265
       284    2       20.488656666490      14.969400064098       1.308147225512
       285    2       17.728316690101      12.221195940925       4.089721681488
       286    2       20.424293917915      12.263119058233       4.113738024071
       287    2       17.674774309422      14.991898710040       4.095700488831
       288    2       20.382768028572      14.973555872443       4.034707709608
       289    1       21.819692637830      10.909340561120       0.021812843756
       290    1       24.552393339491      13.608169232437      54.444695670903
       291    1       21.796352572726      13.616415880035       2.697154216308
       292    1       24.504259395930      10.912853301850       2.782007189046
       293    2       23.154896446013      12.282719758285       1.408321873028
       294    2       25.835763848471      12.251231388438       1.310209408908
       295    2       23.122166859607      14.976122024704       1.320210485785
       296    2       25.935343037924      15.026991956395       1.311922890291
       297    2       23.156477759235      12.273612144876       4.126841906372
       298    2       25.857110593280      12.237842441423       4.107694207226
       299    2       23.191207191297      14.953933286971       4.081184719400
       300    2       25.844383296175      15.002319812032       4.062385353184
       301    1       27.288625507197      10.946100782716       0.039258747854
       302    1       29.988420116654      13.657572231415       0.055916521949
       303    1       27.304786418274      13.579325519642       2.741460867639
       304    1       29.960532898124      10.894778263583       2.703121716710
       305    2       28.645789128330      12.207303270962       1.385387939979
       306    2       31.362556302358      12.309498120854       1.334379353663
       307    2       28.578062092572      14.987729856483       1.309872165766
       308    2       31.394774204544      15.008101046676       1.375692909725
       309    2       28.628101987871      12.276843191832       4.090141797677
       310    2       31.309477086920      12.259822434800       4.118663269018
       311    2       28.626147617483      14.962135292281       4.113746972489
       312    2       31.312641221258      15.015719839563       4.128348597970
       313    1       32.727711351972      10.908350795868       0.039950339137
       314    1       35.418185569057      13.643637406419       0.043673214480
       315    1       32.708585377126      13.634375064368       2.727641973514
       316    1       35.476468008795      10.933766819934       2.734432757272
       317    2       34.096658500297      12.209911779521       1.414986911917
       318    2       36.751861212104      12.298057330125       1.375143414172
       319    2       34.115535694820      14.949198919538       1.364813454862
       320    2       36.740760374585      14.965887059633       1.321501778605
       321    2       34.060163163851      12.245096748355       4.131771315411
       322    2       36.795784958229      12.225901131447       4.033836350009
       323    2       34.113128530217      14.953621761126       4.033103479411
       324    2       36.747761599404      15.022293570584       4.080742458010
       325    1       38.095752526008      10.941740323969      54.495358160438
       326    1       40.899365534387      13.637756254147       0.029267988045
       327    1       38.203408690784      13.657218770581       2.753911648562
       328    1       40.918143469144      10.917661888761       2.773588376667
       329    2       39.477046916873      12.208021900831       1.356089402553
       330    2       42.219034096153      12.213570824613       1.328354221608
       331    2       39.495206229698      15.014453039311       1.374902357591
       332    2       42.205651098931      14.936254191951       1.387966092875
       333    2       39.497953919918      12.308143246072       4.106603781212
       334    2       42.216573121571      12.209194658151       4.094999112129
       335    2       39.485373467232      15.008204858022       4.032007053970
       336    2       42.255700610048      15.008797747360       4.136060901186
       337    1       43.607123952954      10.868898740752      54.459278595736
       338    1       46.307544759875      13.595722759207       0.051744734414
       339    1       43.559617175420      13.653572522952       2.726075012068
       340    1       46.336612123463      10.872060634604       2.701920116324
       341    2       44.966449379389      12.267505440291       1.344611140246
       342    2       47.684313561384      12.290585221402       1.339067406245
       343    2       44.919027173965      14.984194308906       1.351022387461
       344    2       47.633690743983      14.934441289857       1.388393032425
       345    2       45.014168429583      12.221657021765       4.142883574769
       346    2       47.712467135782      12.264600710832       4.098654436490
       347    2       44.962417023142      15.003060202924       4.039798493816
       348    2       47.724515993621      15.007787476070       4.035243738798
       349    1       49.072292220904      10.912596957929      54.498808324811
       350    1       51.736532945142      13.581508312800       0.056468327468
       351    1       49.084774233684      13.577018995880       2.738593459229
       352    1       51.761967979618      10.873288244421       2.698679220100
       353    2       50.361591674304      12.240330529449       1.352502720776
       354    2       53.116094928031      12.234026827113       1.361720243560
       355    2       50.360048121859      14.976098501824       1.336100517963
       356    2       53.145971942281      15.012291021320       1.342186005939
       357    2       50.427961287495      12.270399473880       4.057038439825
       358    2       53.088396704533      12.307839071572       4.034443445596
       359    2       50.432048658388      14.937174025570       4.144979847029
       360    2       53.099404901702      14.948714812662       4.051272848563
       361    1        0.038617344634      16.349233151623      54.497434445997
       362    1        2.683035843296      19.084831118432      54.496487701096
       363    1       54.489343240373      19.076937058316       2.713035772154
       364    1        2.691969065682      16.380206139566       2.756910011287
       365    2        1.332342570902      17.766743354664       1.336351146112
       366    2        4.064004812492      17.683093067305       1.306910530400
       367    2        1.313766814426      20.441630168471       1.360478290341
       368    2        4.076456029038      20.443019807692       1.393797564800
       369    2        1.415638486004      17.725637755924       4.073649786813
       370    2        4.097427192790      17.702840736505       4.052831761909