# LAMMPS data file written by OVITO Pro 3.14.0

32000 atoms
2 atom types

0.0 80.8 xlo xhi
0.0 80.8 ylo yhi
0.0 80.8 zlo zhi

Masses

1 26.982  # Al
2 63.546  # Cu

Atoms  # atomic

1 1 80.70400168 80.73907225 80.7981375
2 1 1.97346769 2.11525103 80.78463257
3 1 0.01702728 2.00533157 2.04625943
4 1 2.03028008 0.04306681 1.9592577
5 1 4.12789731 0.06103399 80.76265407
6 1 6.10439111 1.99384734 0.01969155
7 1 3.94507896 1.9283887 2.11432567
8 1 6.10878777 80.72802525 2.06714523
9 1 8.15128283 0.04007458 80.77957321
10 2 10.14779602 1.92960554 80.72082586
11 1 8.14802985 1.96423139 1.96358406
12 1 10.08493894 0.09583945 2.11959137
13 2 12.11702658 80.71205586 0.09693223
14 1 14.15390719 2.08796635 0.05635621
15 1 12.05487845 2.01761672 1.9923903
16 1 14.10691176 80.7002963 2.05442399
17 2 16.08028593 0.03615964 80.7182451
18 2 18.26980767 1.92910205 80.78281223
19 2 16.16021299 2.06248991 1.95160899
20 1 18.17555214 80.75690283 1.990171
21 1 20.18349384 80.72494471 0.00834684
22 1 22.23346916 2.03950832 80.70529004
23 2 20.10815025 2.03551985 1.95126205
24 1 22.3037631 80.74220458 1.96927396
25 1 24.23529388 80.76356828 0.02734147
26 1 26.33613167 1.9228802 80.71836897
27 2 24.33869179 2.0463308 1.95393627
28 2 26.21162716 0.03700029 1.93029469
29 1 28.37659999 80.77808327 0.06677624
30 1 30.24779025 1.94492174 0.04002009
31 2 28.21010367 2.05777615 2.05179806
32 1 30.24108972 0.01509735 2.06667062
33 1 32.30573638 80.72086672 0.006187
34 1 34.43488193 2.01209334 80.7958461
35 1 32.22802078 2.0500658 2.0964495
36 1 34.29955071 80.73523978 1.92285379
37 1 36.45860076 80.79231383 0.07495399
38 1 38.36763221 2.11242004 0.04217798
39 1 36.41283973 2.11611562 2.10636878
40 1 38.47173004 9.0962e-04 2.06764292
41 1 40.30287456 80.7886006 80.77425643
42 1 42.33442246 2.02325065 80.79874837
43 1 40.33364956 2.07649421 2.04207145
44 2 42.34255183 80.74252608 2.03764754
45 2 44.41892646 80.79651935 80.71918321
46 2 46.46363986 2.04805211 0.02012197
47 1 44.51351831 2.0198205 2.11935413
48 1 46.37812881 80.70483231 2.03804421
49 1 48.41150109 80.75032424 80.71515043
50 1 50.41696522 1.96923447 0.02305426
51 1 48.38662293 1.97957339 1.96340753
52 1 50.44474438 80.71272581 2.05889985
53 2 52.44846934 80.75210305 80.78714305
54 1 54.54843328 1.97396474 0.0398287
55 1 52.42636061 2.00233706 2.04682835
56 1 54.6111689 0.08814051 2.0695757
57 2 56.6583305 0.0087967 0.01409839
58 1 58.58089729 2.00533171 80.7759209
59 1 56.59663746 1.95198785 2.08372442
60 2 58.60592168 0.06256609 2.10494807
61 1 60.66677919 0.0090795 80.70826814
62 1 62.6263928 2.04466004 80.73781932
63 1 60.68959889 1.9876409 2.08206659
64 2 62.57627389 8.3564e-04 2.0576255
65 1 64.55494775 0.04828022 80.76552572
66 1 66.69174787 1.94359924 80.71293981
67 1 64.58443108 2.09210024 2.00016497
68 1 66.56771025 80.73089948 2.01760783
69 1 68.66152571 80.74366852 0.03232826
70 1 70.70817414 2.00813702 0.05667578
71 1 68.71787882 2.00822476 2.0642856
72 1 70.76441306 0.08277677 2.08020914
73 1 72.64644808 80.73591446 0.06236628
74 1 74.66786585 1.97885015 0.07513061
75 1 72.71237852 2.10673518 1.98970151
76 1 74.80416975 0.03281557 1.97536538
77 1 76.76711316 80.73706392 80.77909644
78 1 78.86327746 2.10022174 80.7778031
79 1 76.68153691 1.94610934 1.95663519
80 1 78.7369581 0.02036202 1.95724537
81 1 80.78868265 4.02903447 0.01686082
82 1 2.08002263 5.99181519 0.03499823
83 1 0.05633932 6.1058805 2.01448102
84 1 2.02309888 3.98792683 2.04661177
85 1 3.9851359 4.02487722 80.7019835
86 1 6.12246527 6.1282737 0.00143542
87 1 4.02338791 6.07268906 2.0952514
88 1 5.96325427 4.07646856 2.03929841
89 1 8.16463916 3.9469537 80.71860066
90 1 10.17518224 6.1033418 0.0627009
91 2 8.04860589 6.11633078 1.95809619
92 1 10.19460417 4.07055748 2.08284849
93 1 12.09887688 3.95621971 80.78313985
94 1 14.19023376 5.99518584 80.702086
95 1 12.14497125 5.98300292 2.11558852
96 1 14.17930318 4.06006983 1.98084272
97 1 16.20215137 4.00755708 80.74444772
98 1 18.13821915 6.12866761 80.79217722
99 1 16.13502249 6.04949295 1.97965046
100 2 18.14608916 4.0952127 2.02993482
101 1 20.18208084 4.0708922 0.07044595
102 1 22.19758675 6.08857538 0.05333183
103 1 20.12229756 5.97250306 2.1111071
104 1 22.1611903 4.08101407 2.0165999
105 1 24.28551637 3.95664089 80.78237838
106 1 26.28099253 6.10141769 80.73422254
107 1 24.16779217 6.14427792 2.09982344
108 1 26.31144804 4.01313684 1.96701324
109 1 28.2297085 4.00029017 80.72967252
110 1 30.36886822 6.08802111 0.02335589
111 2 28.25057461 5.96814558 2.05964223
112 2 30.37990459 4.0711267 1.99372806
113 1 32.34493841 3.9411949 0.09181072
114 1 34.36304766 6.04848018 0.06682947
115 1 32.2414471 5.98632214 2.11501646
116 1 34.2825267 3.97629555 1.93121403
117 1 36.34139932 4.07828588 0.07123921
118 1 38.2918383 6.11961679 80.75892012
119 1 36.37704904 5.99034455 2.06661143
120 2 38.36080572 3.98132362 2.04110416
121 1 40.33641175 3.97556259 80.70973924
122 1 42.35275106 6.12064183 80.72267313
123 1 40.30422969 6.10615132 1.97756768
124 1 42.43193722 4.12816723 2.03478817
125 1 44.44938631 3.99019595 80.77188884
126 2 46.52480573 5.96462774 80.79619881
127 1 44.41082 6.1053009 2.11675939
128 1 46.44623614 3.95450911 2.0639359
129 1 48.52302873 4.08092287 0.08280102
130 1 50.55673438 6.14757681 80.75302961
131 1 48.45616443 6.0601274 2.07437569
132 1 50.5098534 4.10270895 2.05041753
133 1 52.421055 4.02860464 0.05751284
134 1 54.53632581 6.06892829 0.07920362
135 1 52.57644716 6.06360905 2.01562799
136 1 54.62348182 4.05425883 2.09369254
137 1 56.47224069 4.0851654 0.0652368
138 1 58.58232691 6.13166952 80.72750217
139 1 56.57733576 6.06602226 1.95758909
140 1 58.59087313 4.00449002 2.05314092
141 1 60.595673 4.07251437 0.01340646
142 1 62.62780024 6.12166755 0.03992739
143 1 60.55858839 6.07018356 2.05334559
144 1 62.53745496 4.08261574 2.04133015
145 1 64.73757875 4.08182547 80.74049807
146 1 66.66544046 6.05187937 80.78829992
147 1 64.55520764 6.11693177 2.05982457
148 2 66.67819725 3.95586133 2.07871795
149 1 68.63694993 4.00123048 0.08743785
150 1 70.73084146 6.09036373 0.00541589
151 1 68.58733544 6.07898564 2.08327672
152 1 70.7519944 4.04460851 2.00918509
153 1 72.80669919 3.98609601 80.79196154
154 1 74.71765476 6.15653661 80.75754622
155 1 72.79814523 6.14473892 2.07983551
156 1 74.78301108 4.00143614 2.05830343
157 1 76.79834337 4.06386681 0.01991832
158 1 78.87944805 5.9884793 80.73089081
159 1 76.82536938 5.96836138 1.97608802
160 1 78.86742774 4.10229117 2.08220517
161 1 0.01263947 8.14007374 0.02145131
162 1 2.05901484 10.13117719 0.06825093
163 2 0.00829423 10.15737579 1.99284991
164 1 1.97835702 8.14629275 2.10017834
165 1 3.98444407 8.17961127 80.70979237
166 1 6.10936769 10.09188013 0.02486969
167 1 3.99175206 10.19954144 2.05598354
168 1 5.98632594 8.06713428 2.06347834
169 1 8.00002284 8.02932963 80.7404635
170 1 10.17578675 10.12503718 0.06648618
171 1 8.063361 10.04927842 2.10204598
172 1 10.07089972 8.09008848 2.00686322
173 1 12.10595918 8.15882552 80.7074816
174 1 14.07365999 10.07724153 0.00153752
175 1 12.17949752 10.08048525 2.06124718
176 1 14.11136139 8.1366534 2.09054114
177 1 16.06864598 8.13018831 80.77934623
178 2 18.24874603 10.16590596 80.79776971
179 1 16.18771738 10.097505 2.1178263
180 1 18.24604452 8.01119414 2.0536323
181 2 20.12199196 8.05174948 0.05209281
182 1 22.15971839 10.01061056 0.02341897
183 1 20.16823228 10.10273354 1.98054977
184 1 22.20994237 8.03475761 1.95533939
185 1 24.25031421 8.05231319 80.78297184
186 1 26.34499729 10.01902759 80.76522021
187 1 24.17403228 10.06988353 2.05817436
188 1 26.28992727 8.1227625 1.93337436
189 1 28.2445697 8.15383554 80.79703968
190 1 30.28092986 10.11404955 80.72502045
191 1 28.30279125 10.07555573 2.06949549
192 1 30.34626037 8.08583977 1.97479724
193 1 32.3197723 8.16398039 80.74501644
194 1 34.41365276 10.05871493 80.78567656
195 1 32.38054229 10.19964628 2.08766914
196 1 34.27830025 8.14952566 2.03845511
197 1 36.43878497 8.09637519 80.75707358
198 1 38.30392848 10.14597056 80.72118466
199 1 36.41846404 10.15858489 1.94514124
200 2 38.45982943 8.01929012 2.08228312
201 1 40.38901164 8.03704703 0.09984405
202 1 42.49959259 10.11052019 80.70922381
203 1 40.47225204 10.08962532 2.08504821
204 1 42.34491063 8.09028507 1.94171261
205 1 44.35931296 8.05879807 0.07251784
206 1 46.4006999 10.08799797 0.06530839
207 1 44.47942365 10.06358553 1.95157574
208 2 46.48462033 8.16129932 2.02264228
209 2 48.54612659 8.12281334 80.73818266
210 2 50.52577817 10.02837528 80.76470866
211 2 48.49299731 10.02248649 2.00280678
212 2 50.51970824 7.99949639 1.93332704
213 2 52.43003547 8.15764747 0.00951703
214 1 54.55516545 10.15439797 80.7224921
215 1 52.47318004 10.06037631 2.03397562
216 1 54.55336414 8.08262406 1.97573283
217 1 56.50237443 8.09621843 80.79955123
218 1 58.52249832 10.11650482 80.74943289
219 2 56.54355474 10.1732761 1.95083501
220 1 58.58957875 8.11247289 1.96311447
221 1 60.56428157 7.99037563 0.08101284
222 1 62.56151531 10.08683289 80.79173994
223 1 60.57142468 10.17901343 2.08913993
224 1 62.55628158 8.01272777 2.00883702
225 1 64.5570646 8.16057135 80.7268416
226 1 66.5941838 10.03958683 80.73777648
227 2 64.55856662 10.09122099 1.99913772
228 1 66.67021865 8.00268798 1.92532694
229 1 68.65320231 8.08138844 80.72625789
230 1 70.6919023 10.15327712 0.06634086
231 1 68.65821921 10.02378213 2.01000949
232 2 70.71016075 8.13456237 2.02528068
233 2 72.7036146 8.14526697 0.01184657
234 1 74.77750667 10.10602519 80.78320201
235 1 72.75132293 10.11030314 1.94274073
236 2 74.77235793 8.03021899 2.0588334
237 1 76.7873363 8.05850438 80.70090482
238 1 78.76119799 10.16461609 80.78544426
239 2 76.68544553 10.0805534 2.07433441
240 1 78.72423728 8.03985188 1.95408862
241 2 80.71125501 12.05645188 80.77407921
242 2 2.0198087 14.23246556 80.75101845
243 2 80.74927364 14.09387032 1.98445133
244 1 1.92586444 12.10039207 2.0527726
245 1 4.02003461 12.10738144 80.71245683
246 2 6.03759034 14.10283428 0.04887748
247 1 3.95117072 14.18918627 1.98526273
248 1 5.96654768 12.19650395 2.03929788
249 1 8.14712567 12.10222763 80.7974245
250 2 10.02906247 14.17177963 80.76525948
251 2 8.00567944 14.14194489 2.07576633
252 1 10.13124483 12.06179861 2.10842612
253 1 12.03893601 12.15337478 80.7272685
254 1 14.13894093 14.2328141 0.09232893
255 2 12.08849711 14.2129887 1.94586095
256 2 14.19787013 12.05873178 1.99861669
257 1 16.07272484 12.04725534 0.08603008
258 2 18.22338571 14.08487098 80.76500127
259 1 16.07108524 14.13840467 2.0189424
260 1 18.17322857 12.16354171 2.09775745
261 1 20.24953588 12.16876494 80.74440467
262 1 22.24339276 14.06428526 80.7634486
263 1 20.14367818 14.09369325 2.08984499
264 1 22.27324576 12.05813891 1.96886071
265 1 24.31967857 12.07634597 80.72663132
266 1 26.17951694 14.04970793 80.77382922
267 1 24.31209796 14.14701725 1.95177057
268 1 26.26371153 12.08186033 2.00829307
269 1 28.34495434 12.19426964 80.78116184
270 1 30.20707423 14.21113827 80.71097835
271 1 28.35705387 14.22760356 1.95373746
272 1 30.23273931 12.16638945 2.00815107
273 2 32.22664173 12.16573745 80.74294993
274 1 34.28217335 14.14281191 0.08303214
275 1 32.40671325 14.15467492 2.07787588
276 1 34.3516994 12.18144744 1.9707731
277 1 36.27566045 12.02604387 4.9813e-04
278 1 38.42226778 14.07642682 80.75779447
279 1 36.37702786 14.21202751 2.09867124
280 1 38.46259708 12.17605495 2.11911688
281 1 40.30547418 12.17860881 80.73475935
282 2 42.3669797 14.2256658 80.73448757
283 2 40.30254491 14.0803991 2.06366735
284 1 42.51951813 12.16901057 1.98807071
285 1 44.52928653 12.16517555 80.70542513
286 1 46.4059647 14.21306385 80.74696057
287 1 44.52497473 14.21554947 2.07749953
288 1 46.52649717 12.18451064 1.95472014
289 1 48.42847916 12.15798781 4.6101e-04
290 1 50.45356427 14.17232729 80.77016671
291 1 48.53061184 14.21932042 1.98023091
292 1 50.40207445 12.17154566 2.07926906
293 1 52.56583613 12.09931849 80.70875682
294 1 54.44041431 14.12901225 80.73123337
295 1 52.5634895 14.1470904 2.01781828
296 1 54.49847623 12.03942144 2.09651148
297 1 56.46627002 12.10472526 80.70114725
298 2 58.61780335 14.21825675 0.05113195
299 1 56.57546946 14.17831125 2.11634263
300 1 58.50739915 12.09768474 2.02203091
301 1 60.59479217 12.02707693 80.70632694
302 1 62.67650357 14.1760992 0.02617833
303 1 60.59503947 14.15981484 1.93631262
304 1 62.68360599 12.12264593 2.02102238
305 1 64.61071093 12.04364656 0.07662584
306 1 66.66518089 14.21073152 80.73773026
307 2 64.69207157 14.10820834 1.95361008
308 1 66.64268594 12.05415339 2.07745524
309 2 68.72357086 12.12888745 80.7618593
310 1 70.61487883 14.20569453 80.78647961
311 1 68.74119334 14.16998114 1.92154148
312 1 70.67250266 12.13604247 1.96266533
313 2 72.72767237 12.02253375 80.78879459
314 1 74.7703768 14.07941449 80.7882301
315 1 72.68892279 14.15536344 2.11819496
316 1 74.65479782 12.04313363 2.06788185
317 1 76.6921448 12.06346692 80.78393638
318 1 78.7313556 14.17496269 0.0289218
319 1 76.73272425 14.09199378 2.03573427
320 1 78.85047269 12.18180442 1.97654481
321 1 80.72270232 16.13711091 80.71426696
322 1 1.93434325 18.17177239 0.08503244
323 1 0.05167096 18.18403245 2.02816616
324 2 1.94232756 16.18894635 2.10577223
325 1 4.1154641 16.15031318 80.77565957
326 1 6.06420274 18.19436988 80.75585024
327 1 4.03984899 18.18595107 2.06358165
328 1 6.09861577 16.21101599 1.93974942
329 1 8.02687895 16.08347742 0.01242054
330 1 10.17749888 18.10111273 80.77030246
331 1 8.17749212 18.18879146 2.01286781
332 2 10.01563697 16.24985575 1.93146245
333 2 12.04097344 16.1024613 80.77229798
334 1 14.16797566 18.19652309 80.79047486
335 1 12.14937844 18.16173815 2.0272274
336 1 14.18128761 16.17827236 2.1072203
337 1 16.11927484 16.2044799 0.09349522
338 1 18.23478414 18.13810166 0.01633496
339 2 16.09892209 18.1259763 1.96194784
340 2 18.15086855 16.25560348 2.02014928
341 2 20.17863963 16.25085984 0.01704114
342 1 22.30607821 18.08823403 0.0853493
343 1 20.14175122 18.27296538 1.97657691
344 1 22.3185999 16.19460988 1.97812713
345 2 24.3307265 16.09749715 80.76022819
346 2 26.1663093 18.24676895 80.73643577
347 2 24.27691951 18.09260642 2.0689742
348 2 26.21838049 16.08512215 2.035077
349 2 28.28405384 16.24753382 80.73827638
350 1 30.39840474 18.26495416 0.03037273
351 1 28.22168756 18.08522791 2.04573362
352 1 30.32544499 16.13105089 2.10421301
353 1 32.40234174 16.20804629 0.07484785
354 1 34.31727025 18.25032797 0.05094016
355 1 32.37663265 18.26836029 2.04240779
356 1 34.38361507 16.1341017 2.0767447
357 1 36.28030834 16.0611274 0.05593791
358 1 38.36694244 18.13960754 0.01777634
359 1 36.40914919 18.19732107 2.02196263
360 2 38.32022458 16.15624146 2.03717146
361 1 40.43461404 16.23490686 80.7316578
362 1 42.38573686 18.08616548 0.05507065
363 1 40.33642938 18.23283514 2.07425111
364 1 42.34009423 16.18881031 1.96016256
365 1 44.52953277 16.17482303 0.0975742
366 1 46.44690187 18.09480606 80.73699451
367 1 44.38913151 18.15184726 2.06664304
368 1 46.4492705 16.25571179 2.04354923
369 1 48.48791637 16.21232374 80.75434383
370 1 50.53702699 18.15053039 0.07156207
371 1 48.44332713 18.17392789 2.07410528
372 1 50.51604377 16.20745721 1.99545831
373 1 52.60485637 16.13631853 80.70133227
374 2 54.44537658 18.2246602 0.04140517
375 2 52.42925981 18.12565123 1.94397637
376 1 54.62384685 16.08168491 1.99825799
377 1 56.49620771 16.12593212 0.00608026
378 2 58.63429805 18.12437462 80.7449305
379 2 56.57586795 18.13349079 2.0795672
380 1 58.60963481 16.17293223 2.0835301
381 1 60.60600218 16.16588134 80.71163602
382 1 62.68105714 18.1721582 0.05049175
383 1 60.51528825 18.12088776 2.06580323
384 1 62.52599261 16.12544401 1.98056657
385 2 64.595857 16.07900765 80.78204147
386 1 66.7256613 18.13903036 80.70566223
387 2 64.59434479 18.10742107 2.05401913
388 2 66.7354528 16.08414256 2.05023606
389 2 68.66062357 16.20443346 80.7452856
390 1 70.73246506 18.08611804 0.02173669
391 1 68.66742021 18.21882395 2.09315604
392 2 70.79962051 16.14805562 2.05360964
393 1 72.76995542 16.18551845 80.72707556
394 1 74.76113108 18.23323509 80.78676265
395 1 72.64414545 18.09234379 1.99653451
396 1 74.82666732 16.10154995 2.07798962
397 1 76.72896337 16.16756437 0.00951841
398 1 78.75154151 18.26763916 80.73178983
399 2 76.77988818 18.09114421 2.11032026
400 1 78.78639842 16.22785168 2.08512035
401 1 80.74916117 20.112716 0.0468225
402 2 1.97342738 22.27391224 0.06043683
403 2 80.79010406 22.2961711 1.93670643
404 2 2.08420586 20.26878399 1.99444479
405 1 3.96736953 20.29521631 80.71502158
406 1 6.02350915 22.29716307 80.75408378
407 1 3.98600337 22.20678907 2.00289255
408 1 6.06384818 20.10365712 2.02956472
409 1 8.11135946 20.26938693 0.03021967
410 1 10.16872644 22.2139355 80.71013503
411 1 8.02194565 22.29276201 2.01260438
412 1 10.11039469 20.1342486 2.07903228
413 1 12.02924918 20.11506683 80.72883666
414 1 14.19410522 22.22002715 0.08359227
415 1 12.1670737 22.17300355 1.95901043
416 1 14.18441158 20.11735304 2.01753552
417 1 16.2473875 20.1860305 0.09266777
418 2 18.18189464 22.29684944 0.00904663
419 1 16.07334034 22.18073385 2.00458605
420 1 18.09934785 20.20392577 2.04593662
421 1 20.21692544 20.25073592 0.09933172
422 1 22.16562607 22.17673358 0.08360848
423 1 20.27651613 22.17231839 1.97288067
424 2 22.18516222 20.21260916 2.07165191
425 2 24.16103752 20.2991608 0.03246306
426 1 26.29419505 22.22069205 0.04701034
427 1 24.3358405 22.26903428 2.09674102
428 1 26.31914365 20.20021589 1.98113201
429 1 28.34484502 20.18105371 80.70739387
430 1 30.21292 22.16068305 0.01572735
431 1 28.23127302 22.25751646 1.92177528
432 1 30.2329027 20.27146212 2.01822591
433 1 32.38402304 20.13904747 80.76356383
434 1 34.24898668 22.18306488 0.05539087
435 1 32.23024269 22.30011125 1.98781595
436 1 34.40531057 20.16941902 1.92006277
437 1 36.38599127 20.10810676 0.06192213
438 1 38.38047157 22.18358249 0.0376739
439 1 36.38717045 22.22298189 2.00662166
440 1 38.40023615 20.24190619 2.01101408
441 1 40.46618072 20.14530054 80.72770113
442 2 42.48331902 22.30777629 0.04183404
443 2 40.37768176 22.31137191 2.07568786
444 1 42.45595237 20.13107199 2.09722063
445 1 44.35357273 20.18198098 0.00841356
446 1 46.44057119 22.25161055 0.0678482
447 2 44.52421394 22.20827085 2.03692002
448 1 46.44176404 20.18108723 2.10604261
449 1 48.3904793 20.19328249 80.74146364
450 1 50.44879151 22.13603724 80.72338008
451 1 48.38415741 22.16879364 2.00262582
452 1 50.4235392 20.21244268 2.00869456
453 1 52.55270784 20.2733501 80.75797161
454 1 54.47932045 22.13227042 0.09578694
455 1 52.45469354 22.17437189 2.07114285
456 1 54.44389242 20.27057172 2.11618783
457 1 56.525949 20.2633944 0.0345487
458 1 58.6141614 22.31142146 80.77916488
459 1 56.60346603 22.23574489 2.1055053
460 1 58.67649462 20.28556063 1.93548747
461 1 60.58431639 20.19802991 80.75070906
462 1 62.61956567 22.16339518 0.03825039
463 2 60.51865724 22.22415971 1.97975575
464 1 62.52758161 20.18636954 2.01769428
465 1 64.58658253 20.29287553 0.03538718
466 1 66.68517565 22.28868848 0.09807718
467 1 64.6551202 22.24574858 1.98075493
468 1 66.62706168 20.28486622 1.93629148
469 1 68.66392297 20.28632188 0.05899931
470 1 70.66320761 22.30691084 80.73227113
471 1 68.623656 22.29589046 2.00468963
472 1 70.64821667 20.1962552 1.96920315
473 1 72.74874386 20.23824214 80.73619735
474 1 74.67502 22.24119601 0.05040135
475 2 72.74665129 22.14522311 2.02792671
476 2 74.83143573 20.24732716 2.10609379
477 2 76.73162025 20.28380293 0.09223303
478 2 78.80218235 22.22413326 0.03666791
479 2 76.79666083 22.23908483 2.11087037
480 1 78.78849055 20.16449901 2.03450007
481 1 0.01291363 24.33520246 80.70726798
482 1 1.9994501 26.17916634 80.77415742
483 1 80.74608356 26.33851388 2.11864125
484 1 1.98469641 24.14730337 1.98272352
485 1 3.99237282 24.26339944 0.02842631
486 1 6.10189953 26.16370436 80.73830326
487 1 3.94037607 26.24022342 2.10846424
488 1 6.14377323 24.33825517 2.10407875
489 1 8.04871072 24.31871996 80.75725567
490 1 10.0373874 26.30625505 0.0668759
491 1 8.08622456 26.27433358 2.08129565
492 1 10.13131002 24.15385023 2.0816434
493 1 12.06513689 24.27215528 0.05444105
494 2 14.23385775 26.28096076 80.79200887
495 2 12.21138663 26.34415531 2.09272158
496 1 14.14510428 24.1438994 2.06488906
497 1 16.06005562 24.26525324 0.0796048
498 1 18.08070327 26.2267445 80.74758818
499 1 16.22265299 26.28487637 2.03475884
500 2 18.23873782 24.26388567 1.99069498
501 1 20.13269799 24.25062978 0.09100318
502 2 22.19524213 26.32237284 0.09853019
503 1 20.23539913 26.34980745 1.94211329
504 2 22.27488637 24.28560005 1.92485504
505 1 24.3141922 24.30311545 80.72021334
506 2 26.35220443 26.32013723 0.08833441
507 1 24.23211885 26.32670159 2.08080936
508 1 26.22486764 24.21010337 1.98448603
509 1 28.29334672 24.14549774 0.07920882
510 1 30.20920038 26.22031791 0.0956105
511 1 28.22830003 26.17448783 1.9551052
512 1 30.23524481 24.31854161 1.97642746
513 1 32.26822821 24.21662591 80.78824156
514 1 34.32496773 26.16281244 80.74902384
515 1 32.40572745 26.20445006 2.10919405
516 1 34.34006804 24.15644547 2.09032999
517 1 36.44650495 24.32470308 0.07325243
518 1 38.44635822 26.35863212 0.06187943
519 1 36.34350481 26.21740764 1.96613472
520 2 38.41272496 24.30936327 2.11270131
521 1 40.31213046 24.24444088 0.00862952
522 1 42.48142878 26.22852839 0.04570989
523 2 40.35382553 26.22752533 1.96599031
524 1 42.37408047 24.24495746 1.96968363
525 1 44.51193004 24.33298048 0.06344845
526 1 46.39740295 26.31887529 0.07135309
527 1 44.51727898 26.22644307 1.98731044
528 1 46.375211 24.21549708 2.11463784
529 1 48.40076947 24.3023346 80.74442683
530 1 50.48720662 26.24643907 80.75508998
531 1 48.45922076 26.26432583 2.09945837
532 1 50.54327925 24.28619262 2.04632841
533 1 52.47704048 24.14433469 0.08133335
534 1 54.5123877 26.22933138 0.0142805
535 1 52.44964124 26.35578661 2.01647908
536 1 54.44013431 24.22504863 1.99497634
537 1 56.62359172 24.26137503 0.06565216
538 1 58.56641783 26.34204322 80.72700702
539 1 56.59643635 26.17950916 2.03731515
540 1 58.53362228 24.22883105 1.92388181
541 1 60.6322149 24.20963728 0.08995073
542 1 62.68363839 26.28958661 0.0365694
543 1 60.66732651 26.28477817 2.00581423
544 2 62.70351265 24.18163462 1.9894231
545 1 64.69146336 24.21827153 80.72110871
546 1 66.71339041 26.26929006 80.79467755
547 1 64.56425027 26.26414124 2.00350118
548 2 66.70605511 24.33781312 2.03188487
549 2 68.68305884 24.20373181 80.71489648
550 1 70.66735572 26.16268201 80.7174633
551 1 68.70410704 26.25689907 1.96413625
552 1 70.7735993 24.1995246 1.99298572
553 2 72.69494442 24.20798345 80.71552505
554 1 74.6533971 26.26623031 80.73707528
555 1 72.67005234 26.29211162 2.08584406
556 2 74.66988722 24.29159975 2.10138264
557 1 76.77582441 24.19043191 80.79786859
558 1 78.85156496 26.18602686 80.75118917
559 1 76.81194892 26.311938 2.01447605
560 1 78.71985951 24.23284197 2.08841103
561 1 80.76028115 28.22416153 0.08931955
562 1 2.09702493 30.35272112 0.01874227
563 1 80.73472602 30.29730823 2.06414727
564 1 2.05098511 28.18431384 2.0931338
565 1 3.970514 28.33030393 0.02112974
566 1 5.98987998 30.29102053 80.7756112
567 1 4.05159527 30.25817498 1.97775621
568 1 6.12000515 28.20910146 1.99715477
569 1 8.08122869 28.18429466 0.02737126
570 1 10.11295369 30.23208932 80.71348305
571 1 8.02766644 30.21621221 2.05038624
572 1 10.19897397 28.34430312 2.10362331
573 1 12.21557477 28.31289964 80.78549757
574 2 14.12805424 30.34497585 80.72840175
575 1 12.11473772 30.256102 1.95724791
576 1 14.06749233 28.18702377 1.99217652
577 1 16.06111609 28.29838014 0.08494628
578 2 18.2346727 30.3369471 0.02068649
579 2 16.08200762 30.36732472 1.99892528
580 1 18.11538695 28.20250594 2.07694953
581 1 20.1994758 28.34039859 0.05824045
582 2 22.20400748 30.37633802 80.70146279
583 1 20.1143921 30.24537119 2.08971475
584 1 22.28395623 28.37294422 2.0307985
585 1 24.15868002 28.2328871 0.08596085
586 1 26.35831873 30.36712371 80.79766462
587 2 24.32094129 30.37968024 2.06373866
588 1 26.21382124 28.30912184 2.09191896
589 1 28.36722623 28.22732633 0.00195935
590 1 30.33818137 30.24922868 0.02487937
591 1 28.20494032 30.3393529 2.0825563
592 1 30.35635372 28.25875904 2.06267702
593 1 32.22510793 28.27851682 80.72899789
594 1 34.42341914 30.37809081 0.04180466
595 2 32.40827896 30.38551042 2.06920426
596 1 34.3331549 28.29826551 2.09382631
597 1 36.34251322 28.32569125 80.79519898
598 1 38.39083509 30.39823685 80.7769626
599 1 36.42101236 30.29097736 2.11858119
600 1 38.46182412 28.3097538 2.00824943
601 1 40.38885223 28.1915785 0.09586816
602 1 42.35658675 30.32213123 80.77000635
603 1 40.33765192 30.24648224 2.077312
604 1 42.34356236 28.35215762 1.93439751
605 1 44.34506814 28.32218082 80.77264635
606 1 46.39644347 30.24029922 0.04941546
607 2 44.4971873 30.31887247 2.11128296
608 2 46.40511563 28.27676278 1.98925696
609 1 48.5039658 28.32469189 0.08853227
610 1 50.40938677 30.30405673 80.78695234
611 1 48.42701476 30.32597428 1.92424355
612 1 50.52828442 28.22435727 1.972223
613 2 52.45118587 28.2274787 0.0555919
614 1 54.55522424 30.37113364 0.06715365
615 1 52.58567961 30.40004416 2.0387333
616 1 54.62573669 28.30127006 1.94480428
617 2 56.64747765 28.21427236 0.09167574
618 1 58.67074019 30.3304062 0.07194781
619 1 56.5704014 30.32546089 2.11989578
620 2 58.63977411 28.35046821 2.06268059
621 2 60.58229215 28.25090746 80.71129363
622 2 62.62490053 30.26801231 80.75388744
623 1 60.58029811 30.34060124 2.07558528
624 1 62.6147023 28.25303103 1.93768845
625 1 64.54045983 28.33812511 80.76935762
626 2 66.71414872 30.3242312 80.7497814
627 1 64.63277459 30.23193161 2.04018338
628 1 66.653511 28.19212595 1.96872107
629 1 68.75470651 28.28709716 0.07272809
630 1 70.64680448 30.35651469 80.72585143
631 1 68.58922294 30.36500355 1.97661144
632 1 70.74917624 28.25000147 2.00323783
633 1 72.64344198 28.23119817 0.00263503
634 1 74.80235654 30.26162447 80.78987652
635 1 72.68689842 30.32900129 1.96986385
636 2 74.80706223 28.29111591 1.92784048
637 1 76.67593957 28.25331185 80.76964598
638 1 78.86393053 30.31409877 80.79526748
639 1 76.78677889 30.32320449 2.00633535
640 1 78.80839075 28.30055409 2.09244401
641 1 80.79386575 32.30061026 80.76444651
642 1 2.08148043 34.36286143 0.01005564
643 2 80.76319553 34.41555587 2.01161676
644 2 2.10506337 32.31877877 2.01093461
645 1 4.04363056 32.22141782 0.00765703
646 1 6.06829987 34.33873865 80.72457074
647 1 3.98830475 34.25816434 2.03780558
648 1 5.98301756 32.25027671 1.96779362
649 1 8.11464042 32.31006511 0.05166612
650 1 10.1094809 34.39266683 80.78645287
651 1 8.03764156 34.42881312 2.05756914
652 1 10.18815359 32.30328799 2.01513978
653 1 12.09071621 32.26481664 0.08111135
654 1 14.11864871 34.39587714 80.72245782
655 1 12.03498284 34.26633571 2.11247128
656 1 14.21500533 32.36159048 2.04838605
657 1 16.13753279 32.25068243 0.06192628
658 1 18.08384979 34.36747817 80.76347316
659 1 16.08083984 34.41170579 1.94067993
660 1 18.17541266 32.39347806 1.93049642
661 2 20.20761936 32.35011921 80.72156109
662 1 22.16540286 34.28724208 0.07429218
663 1 20.24987906 34.3366213 1.92721835
664 2 22.28084144 32.35362679 2.08966064
665 1 24.22802536 32.26115312 80.72763498
666 1 26.18903513 34.42653117 0.07496109
667 1 24.18096738 34.38362205 1.98821955
668 1 26.24491682 32.38239897 1.9458458
669 1 28.19576108 32.30619265 0.04957272
670 1 30.28726663 34.24590938 0.02452922
671 1 28.32779312 34.281752 2.02678723
672 2 30.27415668 32.35177204 1.97012324
673 2 32.24285307 32.32314688 0.08098093
674 1 34.30320038 34.3358466 0.05425471
675 1 32.22015414 34.31531123 2.10310048
676 2 34.36264169 32.41368889 1.94929302
677 1 36.34028489 32.40900683 0.08412707
678 2 38.28992589 34.28389041 80.77761077
679 1 36.27224125 34.37574091 2.06008029
680 1 38.41834144 32.40197644 2.0980529
681 1 40.33054653 32.30045954 80.76947565
682 1 42.47713484 34.28139377 80.73077218
683 1 40.41912824 34.28813991 2.03357528
684 1 42.49642429 32.23540608 1.96466449
685 1 44.43443343 32.23959893 80.72160337
686 1 46.54677783 34.35056052 80.72251105
687 1 44.34702182 34.31062101 1.97476118
688 1 46.45515534 32.24678124 1.99933125
689 1 48.44820532 32.33511217 80.785964
690 1 50.51690631 34.4047525 80.7034902
691 1 48.41955152 34.31799718 1.99231888
692 1 50.49880747 32.41608704 2.07526001
693 2 52.54684743 32.27655825 80.7389286
694 1 54.59587664 34.24458356 80.7392675
695 1 52.54758857 34.43802582 2.07745154
696 1 54.49037482 32.31051929 2.08097863
697 1 56.54351963 32.25843198 80.76584522
698 1 58.66213118 34.27258624 0.06353946
699 1 56.63484669 34.29163219 1.95279722
700 1 58.49103704 32.29432796 2.04746509
701 1 60.6360491 32.40039106 0.07483412
702 1 62.60313649 34.29979314 0.00682434
703 1 60.64856091 34.24636568 2.06505076
704 1 62.70716814 32.26182321 2.08022457
705 2 64.59301349 32.33108688 0.04949573
706 1 66.67601126 34.35442003 80.72952967
707 1 64.68130377 34.41865195 1.92964481
708 1 66.57483013 32.29653271 2.02253963
709 1 68.59561082 32.25821023 80.73370454
710 1 70.614324 34.41005777 0.01888627
711 1 68.70135593 34.28280399 2.02650642
712 1 70.61299954 32.40329215 2.09208994
713 2 72.75059007 32.37734479 80.74352349
714 2 74.74549118 34.24017122 80.71912192
715 1 72.7266359 34.43214159 2.10509146
716 1 74.80375394 32.31508788 2.03551265
717 1 76.665527 32.33037115 80.72077149
718 1 78.79854412 34.25001694 0.07209704
719 1 76.6730482 34.33491729 1.96588556
720 1 78.69647535 32.31760397 2.02287862
721 1 80.75865186 36.30281395 0.00532689
722 1 2.10159433 38.30730028 0.02899213
723 1 0.05991965 38.39689136 1.99286553
724 2 1.95625856 36.3060381 1.96532633
725 1 4.12952458 36.38114919 0.0228038
726 1 6.02298893 38.38793901 80.78157235
727 1 3.97714335 38.32482094 2.06490185
728 1 6.03277221 36.45087139 2.06491267
729 1 8.13382233 36.44763586 0.08354202
730 2 10.07785022 38.39773735 80.78465608
731 1 8.16409522 38.29035499 1.95940873
732 1 10.00372533 36.38065145 1.97090256
733 1 12.10225099 36.39312885 80.73619467
734 1 14.11081501 38.33493227 0.0050034
735 2 12.17774502 38.37711975 2.11527818
736 1 14.0449037 36.27046795 1.98423448
737 1 16.1194086 36.2738962 80.78913195