# LAMMPS data file written by OVITO Basic 3.11.3

16000 atoms
1 atom types

0.0 66.0 xlo xhi
0.0 66.0 ylo yhi
0.0 66.0 zlo zhi

Masses

1 180.95  # Ta

Atoms  # atomic

1 1 3.3832764081 3.2242631539 3.2969133505
2 1 1.6658156816 1.5930580833 1.6009767705
3 1 3.3118649603 0.0056406394 0.0587005794
4 1 4.9967821639 1.552415682 1.7762938836
5 1 0.0153889302 3.1180142739 -0.0090149129
6 1 1.7626754014 4.7987408208 1.5780789515
7 1 3.3340110779 3.1572871436 0.0296716642
8 1 5.0057179723 4.8320088205 1.6962031187
9 1 0.0920542808 0.1447626274 3.3329190935
10 1 1.6331059832 1.7085876453 5.0497492948
11 1 5.0040219088 4.9458291027 5.0263259571
12 1 4.8609190514 1.5394397549 5.0252898931
13 1 0.1267465098 3.176526663 3.356296498
14 1 1.521871977 5.0133962487 4.7828510525
15 1 6.5485318756 3.4616697198 3.3356951472
16 1 0.0174890079 6.5763677638 3.2488638451
17 1 3.3108236547 6.482146774 3.3674579669
18 1 0.1515962068 3.3247033326 6.5397277802
19 1 3.3013170033 3.305682218 6.5714464499
20 1 11.473293768 1.6943270839 4.8798691117
21 1 8.1260218151 1.5660272693 1.5794953437
22 1 11.735132998 5.1513209668 5.0676760174
23 1 11.636405792 1.7922960192 1.6367079135
24 1 8.3762434225 4.77587981 5.1493125872
25 1 8.2486036313 4.9451785954 1.5736317294
26 1 9.9195705291 3.2969873851 0.1400580735
27 1 11.521840825 4.9544452942 1.6066873008
28 1 9.7956809987 3.1496796189 3.3444549915
29 1 8.1582370534 1.696980014 5.017400169
30 1 9.8877982786 0.165047117 3.1681993231
31 1 9.9502196258 6.375250673 0.0864427483
32 1 10.050235304 6.573832097 3.2903699323
33 1 13.070735355 3.3463045452 6.5814264939
34 1 6.6333190978 3.2247966554 6.5694025514
35 1 9.8323778953 3.3430489016 6.4848703533
36 1 9.6071705965 6.495140234 6.5437650608
37 1 13.143793411 6.5477234699 6.5768853714
38 1 18.040902714 1.6343448542 4.962344035
39 1 14.690216727 1.6202029334 1.733979479
40 1 19.764347048 0.0553521763 3.3254514712
41 1 18.132869239 1.7285633384 1.4928308098
42 1 13.367020441 3.232684769 3.3900784615
43 1 14.854662838 4.9236224629 4.825425684
44 1 14.672931498 4.9189876991 1.5772822832
45 1 16.599449353 3.3321588751 3.2937647106
46 1 18.317212866 4.9144072619 1.6778601049
47 1 19.778208344 3.3909477212 0.1010195287
48 1 13.241548596 1.5934838664e-05 3.5191481514
49 1 14.921700281 1.6171641008 4.9889913311
50 1 18.047759167 4.8491209201 4.9626994539
51 1 16.504270082 6.4658795553 3.3327061666
52 1 21.463726775 1.5186305198 1.7796881011
53 1 21.390551456 4.9779149165 4.8484546523
54 1 24.704211295 1.5222164324 1.7408872411
55 1 21.568125408 5.0257846193 1.6824615704
56 1 23.150267141 3.2938919607 3.3141166528
57 1 24.780603921 5.1140048513 1.6828088648
58 1 21.387438462 1.6074017572 5.0598469583
59 1 24.740659523 5.0147757379 5.032324323
60 1 24.869521184 1.6270823415 5.0376646303
61 1 26.331670838 3.4343384704 0.1265887179
62 1 19.906914822 3.2516748344 3.2041630525
63 1 23.018765562 6.421932201 3.4849011427
64 1 26.282020375 6.381114745 3.3032871302
65 1 31.445179946 5.0837099463 5.0148685376
66 1 27.949873773 1.6640767298 1.6568406098
67 1 31.274015588 1.526056278 5.1218725639
68 1 31.329015243 1.6682574971 1.690548191
69 1 26.419559823 3.3960392417 3.2140142645
70 1 28.140462847 4.8391155997 1.6863307734
71 1 28.117999091 4.9339275806 5.1273318479
72 1 31.304558549 4.8971461122 1.6212567678
73 1 29.596989343 3.3497916333 3.1344556077
74 1 28.015829193 1.4529285483 4.8099994872
75 1 32.985320739 3.3040171363 0.1173414923
76 1 32.86858306 3.3306683061 3.2974544572
77 1 29.742271251 6.5594600156 0.1417747979
78 1 29.627136438 3.2797356383 6.505130304
79 1 26.441967482 6.5758360361 6.5524127491
80 1 34.642129536 4.8016991639 5.0091511175
81 1 34.661810826 1.7554977886 1.6369218636
82 1 34.818994253 1.7901576344 4.8922653694
83 1 37.944253104 1.7956434295 1.5878018071
84 1 36.302502095 3.3349588306 3.1547744612
85 1 37.855134454 1.6716417503 4.7464460455
86 1 34.627737426 4.9476161225 1.4980644059
87 1 38.082823052 4.8821065864 4.7539188401
88 1 38.013526127 4.900301195 1.4529346908
89 1 39.564784209 3.383257125 3.3724905488
90 1 32.998375454 3.2834975591 6.5164559827
91 1 33.097212847 6.5330396583 6.6067813182
92 1 41.347580175 1.5328522229 1.6359450539
93 1 41.364890318 5.0634630336 4.8963232915
94 1 44.664557409 1.698931863 1.702163463
95 1 41.318063129 4.8609977243 1.6455859907
96 1 42.840623671 3.2093849101 3.213202515
97 1 44.722032746 4.9146622114 1.5391335685
98 1 41.289349215 1.8085463926 4.9294128986
99 1 44.489823236 4.9409555418 4.9601909828
100 1 44.633694146 1.7068332089 4.85149374
101 1 39.7364362 3.1585263984 -0.0093886342
102 1 46.071938922 3.1644127826 0.2470856089
103 1 46.185634963 0.0678828056 3.324638197
104 1 46.188670907 3.2705602089 3.2847059176
105 1 42.771401861 6.52798628 3.1599992879
106 1 43.00215674 0.144100971 6.5418293673
107 1 42.959720368 3.1437030437 6.4557174582
108 1 46.114442551 3.2252964425 6.4784893679
109 1 51.238434176 1.6454416314 4.9937569352
110 1 47.822557416 1.7105427729 1.7765482257
111 1 49.64981456 0.1263560951 0.1454923068
112 1 51.171230019 1.6170729378 1.7077571262
113 1 51.291663583 5.0037774293 4.7745525938
114 1 47.869197279 4.9060405514 1.6154603757
115 1 48.038139396 5.0273179807 4.8546316942
116 1 51.083681285 4.8915251386 1.7456302882
117 1 49.623358 3.3436251118 3.3382732637
118 1 47.727426765 1.7073200089 4.9058784557
119 1 49.613669582 0.112484526 3.2256521659
120 1 52.715433353 3.1531566142 0.0178354997
121 1 52.737721401 3.2529243504 3.253056701
122 1 49.537505816 6.5795944942 0.0298458581
123 1 46.28281922 6.5658683349 3.253585552
124 1 49.558409869 6.5603907274 3.2486339393
125 1 57.713446548 1.474364428 4.944963152
126 1 54.326558164 1.676756313 1.5204904762
127 1 57.769130767 5.0634699563 4.8556345488
128 1 57.922085495 1.6031024485 1.5887804608
129 1 54.281714876 4.905298079 4.9962593226
130 1 54.344212217 4.9596854231 1.5544837547
131 1 56.103467302 3.3909818034 0.0786853878
132 1 57.723546174 5.0054195954 1.6500764776
133 1 56.258489855 3.2209009245 3.2969196091
134 1 54.521827194 1.5740070193 4.9931030249
135 1 56.189545311 0.0220918463 3.3200466839
136 1 59.290946453 3.4779511983 3.2629698296
137 1 59.31563457 3.3746820466 6.4935924282
138 1 52.941033693 0.0367486903 6.5645019008
139 1 64.297239924 1.5501369608 4.9153575589
140 1 60.94511489 1.7390485111 1.6213945952
141 1 64.188440138 4.9984066811 4.8731682409
142 1 64.338120005 1.529808657 1.7864084279
143 1 61.075939641 4.9368918354 5.0325806929
144 1 61.014923238 4.8328463562 1.7054886661
145 1 62.658606878 3.2233161629 0.0851028451
146 1 64.395001814 4.8993996194 1.6833619799
147 1 59.600202722 0.035266569 3.2781780298
148 1 60.986301696 1.7523263725 4.9520328965
149 1 62.71465129 3.212144161 3.189791486
150 1 62.748089025 6.4784128463 0.047802884
151 1 62.709793515 6.5503869994 3.1981100996
152 1 59.437124752 0.0877319779 6.6048035548
153 1 62.605369955 0.0658417451 6.5668479532
154 1 65.905308543 6.3834238203 6.5821634325
155 1 62.75279343 3.4095720989 6.5262110953
156 1 -0.0166560681 6.7084333027 0.0102171113
157 1 1.6734265276 8.2061730303 1.6640433461
158 1 3.2907212441 6.6491632494 0.130597085
159 1 4.921319296 8.2267431735 1.6310636578
160 1 0.0562427548 9.7262783114 3.3437123121
161 1 1.4991149178 11.63844156 1.632928675
162 1 1.7698553837 11.718205316 4.8903949097
163 1 4.8233324403 11.557375561 1.5623042796
164 1 3.2734841226 10.125337035 3.2820769592
165 1 1.6538933886 8.2976068301 5.1089825069
166 1 4.8728399176 11.687665791 4.8826299317
167 1 4.8780949105 8.1713496082 4.9601898284
168 1 6.5792504701 6.658408877 -0.0059575282
169 1 6.5760667144 9.8325269173 0.1112874833
170 1 6.5337179126 6.6465847254 3.2840031101
171 1 6.5439521328 9.9269959689 3.4044773593
172 1 3.1462118175 13.159506319 3.2947204355
173 1 0.1278522869 9.825563556 6.481371836
174 1 6.5129994093 6.7262604248 6.4270435846
175 1 8.3446783874 8.0519698824 4.800416352
176 1 8.2139420738 8.2424711788 1.7156582762
177 1 9.877907685 10.027262095 3.1845531639
178 1 11.677741008 8.314107609 1.5701962886
179 1 11.786955454 8.1967575691 4.9852393592
180 1 8.0867434614 11.489933622 1.6363392002
181 1 11.488043619 11.544687002 5.1165215204
182 1 11.347990007 11.529574051 1.5971820597
183 1 8.1625082645 11.547307267 4.9473833822
184 1 13.139074546 9.9875863775 3.3293325493
185 1 6.8032129378 13.118736165 0.1300451623
186 1 9.8230573816 9.9536947425 6.5331464582
187 1 13.383720812 6.6894070814 0.1251603338
188 1 14.860420605 8.1509521577 1.5884903033
189 1 16.44381115 6.6700922581 0.0332098731
190 1 18.102588882 8.1832141067 1.685118459
191 1 18.238486208 8.0676499888 4.9929990518
192 1 16.331839024 9.8851159582 3.241180755
193 1 14.86227204 11.564765019 1.7241994122
194 1 18.175395608 11.517416718 4.9736500786
195 1 18.017205481 11.396976718 1.9204449758
196 1 19.653443881 9.9370557586 0.1203190263
197 1 13.276912352 6.7057734525 3.3701646389
198 1 14.764294411 8.1399190324 5.031526556
199 1 14.884826322 11.437700502 5.0400603728
200 1 13.335839756 13.113642218 3.1461643172
201 1 16.581058562 13.126424544 3.2710760954
202 1 16.450587996 6.8187065084 6.4757042195
203 1 19.709323076 6.650298658 6.5708138543
204 1 16.398290459 9.7419830136 6.5716570461
205 1 19.757024352 9.8881286322 6.5515946949
206 1 13.305307694 13.162277666 6.5929991175
207 1 16.639656112 13.160544879 6.3703292229
208 1 21.283687451 8.1990557992 1.6474339324
209 1 23.184462266 10.017694889 3.2167655076
210 1 24.607721727 8.3628878126 1.8313130552
211 1 21.516947845 11.475310449 1.456397085
212 1 23.128342378 9.9910675006 0.1491857952
213 1 24.886768103 11.611932829 1.7154812718
214 1 21.434550979 8.3398438349 4.8713814815
215 1 24.714526235 11.487329132 5.0817846549
216 1 24.797637617 8.4442224636 5.1060494489
217 1 21.452609905 11.501793137 4.8545866396
218 1 19.799138179 6.7378761412 3.3584302974
219 1 26.397766917 6.63083253 0.0394508935
220 1 26.393180285 9.8834107592 0.0541183772
221 1 19.834599996 9.9399642403 3.3920511399
222 1 26.305529534 9.8117427004 3.3053452726
223 1 22.923400534 13.132746851 3.3335693328
224 1 19.80412768 13.176140846 0.043417821
225 1 26.324535908 13.159221593 3.28315484
226 1 23.136155987 6.6209441259 6.5102628286
227 1 26.384475982 9.8749561117 6.4844073851
228 1 29.822568694 6.6625024908 3.2214406343
229 1 27.84282213 8.239453005 1.6047954433
230 1 31.244781632 8.5798959317 4.9435367062
231 1 31.323742714 8.2792760583 1.5863783554
232 1 31.298793521 11.467343363 5.0731533155
233 1 27.873299214 11.824299337 1.7400527669
234 1 28.277047134 11.337371497 4.8490178577
235 1 31.524918897 11.636167175 1.576293826
236 1 29.722533701 9.8282678598 3.4389900432
237 1 28.060337765 8.0350241358 4.8785818295
238 1 29.63814207 13.191098366 3.4884875075
239 1 32.947066761 13.093684409 3.3778284366
240 1 29.874966243 9.8294054608 6.5088000217
241 1 26.548395084 13.152834222 6.5078173247
242 1 29.821790138 13.184851967 6.5095612694
243 1 36.016503471 9.9803925318 3.331559595
244 1 34.796820175 8.228105741 1.6603335232
245 1 36.434932152 6.5958544666 0.0866990941
246 1 37.715843133 8.2607079523 1.7071143318
247 1 37.996337669 11.565645952 5.0167364218
248 1 33.015723509 9.9159960607 0.002519215
249 1 34.501247338 11.563023783 1.6193589726
250 1 36.238146402 9.9234123302 0.1671152239
251 1 37.900024029 11.567810946 1.8803783016
252 1 39.568587394 9.9915347995 0.0941353537
253 1 33.01510138 6.6910937615 3.2998854762
254 1 34.745308727 8.2589783739 4.9036063744
255 1 36.327885853 6.6051686085 3.2783556494
256 1 37.991396893 8.1331070564 4.9265719473
257 1 39.565499328 9.8707975981 3.1970509681
258 1 33.075980765 9.8508586789 3.2599666517
259 1 34.619262309 11.702033991 4.9328650977
260 1 36.290118473 13.094199774 0.0689060814
261 1 36.115997286 6.8500394506 6.496486114
262 1 33.126444301 9.8957819941 6.6210802324
263 1 36.298725816 9.7937498666 6.5631974819
264 1 41.284439017 8.1905610658 1.7751531255
265 1 43.03647992 6.6363548165 0.2177018439
266 1 44.510657305 8.2294695724 1.6160126119
267 1 41.354837526 11.558996966 1.7224454194
268 1 42.893834569 9.8424787919 3.2378950559
269 1 44.600148756 11.339900273 1.6250328758
270 1 41.336053569 8.1688715475 5.0188556088
271 1 44.448868443 11.404539746 4.9888986138
272 1 44.406451926 8.3597103197 4.8816847078
273 1 41.239276304 11.588392975 4.9318798993
274 1 39.681006693 6.6751113073 3.4198088285
275 1 39.650697408 12.932326087 3.3020833359
276 1 42.995788936 13.190551741 3.2040250019
277 1 42.924290601 13.059797583 6.4883461729
278 1 46.003861929 13.089793673 6.5267502008
279 1 51.167358982 8.4113915985 4.9512074719
280 1 47.688076559 8.4204317992 1.6263046976
281 1 46.211927955 9.893439254 3.1705752683
282 1 51.03927823 8.1127697871 1.55099521
283 1 47.853257665 11.638858116 5.0458053271
284 1 47.937175568 11.636942678 1.6064383387
285 1 49.358866497 9.8955242913 -0.0034032652
286 1 51.161821095 11.518440123 1.5796975088
287 1 49.486394241 9.9744109 3.4243386179
288 1 47.850655612 7.9895580069 4.915971199
289 1 51.085491267 11.494585527 4.8865869861
290 1 52.793906777 9.7901729276 3.3408548162
291 1 57.579412711 11.615458271 5.0146409582
292 1 54.489086843 8.2759680325 1.5392765071
293 1 56.076917528 6.6172004166 0.0165780486
294 1 57.68404727 8.2445311158 1.600690364
295 1 54.458500406 11.520189197 5.1775213308
296 1 54.343533056 11.506498862 1.6703575479
297 1 56.087281337 9.8275177595 3.1838434443
298 1 57.721097689 11.566671734 1.47590102
299 1 52.932596441 6.6888237878 3.3637703362
300 1 54.549000534 8.2540725937 4.9082832706
301 1 56.067486089 6.5959873615 3.4105695353
302 1 57.806396318 8.2902569825 4.8622821038
303 1 59.33352798 9.977663863 3.3283675297
304 1 59.370354705 13.07629778 3.2341659324
305 1 52.880098581 9.8173421969 6.5327035029
306 1 56.208749352 9.8519695987 6.5567663233
307 1 62.623978431 9.9905653876 3.3212017907
308 1 61.122841435 8.2985338959 1.6857800283
309 1 64.466098176 8.2027724253 4.8759832541
310 1 64.328845651 8.2333654877 1.7080568826
311 1 64.46245716 11.617440169 4.9815980806
312 1 61.002144067 11.623882003 1.6945578325
313 1 60.962463562 11.526298441 4.7886151427
314 1 64.367338645 11.446655507 1.6490648196
315 1 59.666153974 6.6192688933 3.3034254143
316 1 61.016346028 8.1134615898 5.0297694234
317 1 59.534570572 13.07193179 0.0382437702
318 1 62.629294913 13.178672111 3.2793120449
319 1 59.511415325 9.7815680129 6.5808608266
320 1 62.59547027 9.8614634664 6.523858008
321 1 59.473047185 13.145909885 6.5131825442
322 1 4.8969831614 18.18359679 4.8798521412
323 1 1.7161651458 14.876610727 1.6624500511
324 1 3.3302315607 13.258213756 0.0523886135
325 1 4.9688164887 14.778918684 1.5573644852
326 1 0.0572804625 16.758990294 0.1879538503
327 1 1.7046790464 18.121101564 1.6113394656
328 1 4.9984034545 14.9400588 4.9697843208
329 1 5.0555841211 18.215334409 1.6636241782
330 1 3.3814093992 19.584809761 3.3075082739
331 1 1.6692345276 18.260199032 4.8262181876
332 1 3.3239984888 16.370864023 3.280645959
333 1 1.6332892438 14.975807023 4.8627258932
334 1 6.5925135525 16.40616664 3.2972201792
335 1 9.954275551 13.278919022 3.5075540719
336 1 8.3666824519 14.850769758 1.7747682682
337 1 11.539624007 14.928202108 5.1533112945
338 1 11.458627244 14.743487846 1.7182207456
339 1 11.421931984 18.253162626 5.0683571982
340 1 8.3555615081 18.055447645 1.5787515276
341 1 8.2779785389 18.264351609 4.8145732743
342 1 11.629661576 18.31122531 1.5505455167
343 1 10.012620243 16.347896359 3.3508586118
344 1 10.004797711 19.709074377 0.0430742757
345 1 6.7096615446 13.296639994 3.2879877086
346 1 8.1744684634 14.867908546 4.9192090364
347 1 13.179304299 19.784139061 0.020077123
348 1 13.037275595 16.519364375 3.3661200616
349 1 9.6959857369 13.450670524 6.5157508661
350 1 9.9379697987 16.549101549 6.5722468328
351 1 14.893127671 18.225828356 4.9042272515
352 1 14.910859353 14.829847171 1.5883701515
353 1 16.518771969 16.650348039 3.2894261957
354 1 18.189443646 15.016136684 1.5195620485
355 1 14.778395005 14.784645734 5.1401647684
356 1 18.250712932 18.156204576 4.8523379578
357 1 14.914708876 18.294662436 1.5797452527
358 1 16.367660162 16.418405347 0.1161614997
359 1 18.283787683 18.050114546 1.5386830197
360 1 18.358493821 14.889459269 4.9121849479
361 1 19.625664933 13.457870558 3.3383307914
362 1 16.57189557 19.628145915 3.5543058766
363 1 21.466517669 14.933044297 1.5911922479
364 1 23.266789665 16.552592131 3.2088693043
365 1 24.806504625 14.876051008 1.6140843182
366 1 21.45421663 17.989240061 1.5948962872
367 1 24.638788804 18.189724381 4.8672802965
368 1 24.85903377 18.28632994 1.5449676101
369 1 23.054410033 19.668214336 -0.0159349908
370 1 21.310306677 14.885856898 4.7970919562
371 1 23.029526161 19.664470566 3.2143933442
372 1 24.63533426 14.80259534 4.889519998
373 1 21.122636645 18.180293091 5.072992808
374 1 26.363262808 16.441893863 3.3852117906
375 1 19.970215333 16.537005257 3.3457494627
376 1 22.981608675 13.254153816 6.4597110659
377 1 31.376037187 18.127140688 5.0686220318
378 1 27.941911899 14.863124437 1.5677849418
379 1 31.239116716 14.765892499 4.8446032178
380 1 31.401841819 14.767709828 1.7986556182
381 1 26.478802794 16.602149929 0.1998981212
382 1 28.264167908 18.275778425 1.726910523
383 1 29.65342724 19.705612013 3.3953562182
384 1 31.291898487 18.151438341 1.7055515929
385 1 26.465104891 19.784607028 0.0523504521
386 1 28.276815133 18.178719881 5.0750626786
387 1 29.714361193 16.523324321 3.5253513703
388 1 28.124311787 14.760292587 4.8381910485
389 1 32.918147681 16.443862543 0.0688414476
390 1 26.445920477 16.69122292 6.5378762716
391 1 32.94054324 16.559859628 6.5777667816
392 1 32.965932735 19.620676364 6.4755012948
393 1 33.022664678 13.25915565 0.0894420533
394 1 34.654812783 14.931954156 1.5140180429
395 1 36.342401587 13.250635932 3.4429110098
396 1 37.928049105 14.865018232 1.8367358751
397 1 38.041878397 14.932163641 4.9064686818
398 1 36.3372491 19.689294079 3.2713036673
399 1 34.625918893 18.020349908 1.6981405306
400 1 36.264796479 16.334561379 0.0291970058
401 1 37.740618686 18.034986978 1.6543813546
402 1 33.0955237 16.441278309 3.374403656
403 1 34.562365094 18.177541942 5.0848728661
404 1 36.297301777 16.623502587 3.3909208605
405 1 37.868491147 18.132221826 4.8273843199
406 1 39.473470939 16.401122013 3.3497439556
407 1 34.566024887 14.847703593 4.7993136649
408 1 39.463976568 16.592538061 6.4422169232
409 1 36.353107847 19.652237832 6.3591470682
410 1 41.351034637 15.03004462 1.6733541396
411 1 44.678636672 14.877814261 4.9437557428
412 1 44.529938516 14.827546288 1.6559301685
413 1 40.970374005 18.177929504 1.4730649257
414 1 41.236725313 18.113391222 4.9076719862
415 1 44.513429768 18.094128496 1.6358720974
416 1 42.802652482 16.461182271 3.2191571178
417 1 41.227877881 14.914716401 4.9219418172
418 1 44.56778378 18.172083566 4.970114568
419 1 46.156370978 13.327114176 3.4492850856
420 1 39.630287161 19.670797694 0.0945256369
421 1 39.733976903 19.737464051 3.3367459458
422 1 39.64369259 13.30112769 6.4641707611
423 1 51.049789746 14.826440857 4.9920083923
424 1 47.82178627 14.944150293 1.6743088025
425 1 46.276936119 16.302731692 3.1042956698
426 1 51.038812686 14.736908162 1.6310336113
427 1 47.915812966 18.21576089 4.8589734525
428 1 47.927362462 18.171413815 1.6853100263
429 1 49.479635488 16.278792136 3.3205321504
430 1 51.058110391 18.045015941 1.6500124582
431 1 51.040837676 18.078498423 4.9111885864
432 1 49.540194442 19.693849528 0.0867669034
433 1 46.27930107 19.641356005 3.3786389146
434 1 47.823011154 14.969414902 4.9418751703
435 1 49.52094733 13.22703358 3.3310343266
436 1 52.747529127 13.256057952 3.3472288703
437 1 52.786296284 16.33268446 3.2944583654
438 1 52.686288036 19.78650034 3.2039767712
439 1 52.720009966 13.243520529 6.5190668189
440 1 52.799637652 13.244933193 0.0388082686
441 1 54.439372555 14.906031301 1.5603519245
442 1 56.026971428 13.201349036 3.2806194082
443 1 57.666614225 14.740967612 1.4121033389
444 1 57.643531812 14.853255748 4.8458866645
445 1 54.387996165 18.141094146 1.4097952685
446 1 57.664780441 18.214234617 5.0864290353
447 1 57.816484959 18.10359504 1.8892694972
448 1 54.525530679 18.054839436 5.0467692894
449 1 56.163379104 19.751361147 0.1183647953
450 1 55.986663412 16.440285726 3.2176105802
451 1 54.377855441 14.893316233 4.776239758
452 1 59.302309746 19.756251123 3.2999737676
453 1 56.168138992 16.476458981 6.5429672031
454 1 64.327599202 14.780198286 5.0680620744
455 1 60.89307641 14.919193169 1.5828643551
456 1 59.444566093 16.47503083 3.2405118155
457 1 64.400588521 14.766873363 1.5768384642
458 1 61.019201657 17.955335545 4.9390542697
459 1 60.915346453 18.118487041 1.6078767595
460 1 62.742627524 16.52307703 3.396419277
461 1 64.38813704 18.034373416 1.8929700315
462 1 59.460497374 19.678887691 0.0174033965
463 1 62.563410348 19.793193375 0.1841648282
464 1 64.231053926 18.035725616 4.6949129204
465 1 61.098629848 15.093619825 4.8757123178
466 1 62.707822412 19.6233266 3.1170841178
467 1 66.002168881 13.248795167 0.0466840831
468 1 65.779067713 13.355908385 3.3421071858
469 1 65.948733868 16.431112267 3.2248541506
470 1 65.9481227 13.368880068 6.5095572869
471 1 59.426770682 19.804846475 6.5330970589
472 1 1.6399721732 21.584219265 1.7240949521
473 1 4.7957236436 21.601696069 1.5782761032
474 1 1.8573506866 24.749011035 5.0755941236
475 1 1.747920628 24.622881122 1.7640290404
476 1 3.3305024884 23.047536115 3.2456704694
477 1 5.0871199391 24.613220082 1.453828193
478 1 1.4460689271 21.571223863 5.0290408949
479 1 5.0282158205 21.565297102 5.0946096354
480 1 4.9644710924 24.772581121 4.8597009014
481 1 0.0022526687 19.938682725 3.3070931444
482 1 6.5800168058 22.996040915 0.0112997086
483 1 3.3059808528 19.832990756 6.5497744863
484 1 3.4442487403 23.240540604 6.5287817221
485 1 3.3581194092 26.411949098 6.4891221764
486 1 8.2788326812 21.468731986 1.8588902522
487 1 11.729252452 21.476781014 1.534255383
488 1 9.8216125568 23.17174892 3.347437844
489 1 8.3813764924 24.659595537 1.5437950685
490 1 11.528396624 24.686761671 4.8529372007
491 1 11.432778655 24.753531327 1.6679655167
492 1 8.219164214 21.582210955 5.0115809436
493 1 11.731153924 21.526577187 5.0098483157
494 1 6.7101608223 22.969254213 3.4365180608
495 1 8.3280344417 24.776263561 4.8982340213
496 1 6.7599219068 19.84806506 3.3622318971
497 1 9.8901567482 19.884127959 3.2715336413
498 1 13.105479348 19.881564325 3.249788883
499 1 13.059563005 23.106950338 0.1635550833
500 1 9.9504235501 26.316863166 3.4497332269
501 1 6.628353277 23.058332813 6.5334328235
502 1 9.9406476505 23.012604486 6.454137184
503 1 14.878570669 21.408314922 1.674692855
504 1 18.390243996 21.646547094 1.6455365911
505 1 16.6011699 23.255244688 3.2571684458
506 1 14.830442707 25.110429413 1.6327631847
507 1 18.170757094 24.616520288 4.8400907738
508 1 18.171039518 24.972962254 1.6127987334
509 1 19.640414039 23.159101534 3.2955076868
510 1 15.002026009 21.600745277 4.9213799379
511 1 18.285878549 21.469328902 4.9057211443
512 1 13.211475287 23.090993018 3.1429744966
513 1 14.866307489 24.788867075 4.9833017552
514 1 19.713948339 19.873999748 3.0875639692
515 1 16.523999507 26.3186589 0.019191031
516 1 19.581638753 26.276743663 3.5325497216
517 1 13.259417804 23.133536772 6.331485296
518 1 21.561988394 21.528304307 1.7624591439
519 1 24.740287397 21.398555211 1.7339489613
520 1 21.575943403 24.743736864 1.6356679896
521 1 23.069920746 22.992982912 0.1142817048
522 1 24.826197968 24.624863918 1.9368192529
523 1 21.516810496 21.447367039 5.2043493858
524 1 24.653948936 21.70726622 4.8157946164
525 1 21.662009945 24.670320156 4.9647217258
526 1 23.223634128 23.057269526 3.3869609676
527 1 24.69156003 24.884072609 4.9709877327
528 1 26.260243613 19.883504558 3.4335156194
529 1 20.001027904 23.046620389 0.0081841964
530 1 26.403552064 23.062014513 3.2413218306
531 1 26.231618763 26.249009224 0.1254738087
532 1 26.11919514 19.876024757 6.5621148481
533 1 28.069849403 21.284320731 1.7888534601
534 1 31.298749731 21.485670302 1.634451703
535 1 28.102693361 24.900606438 5.0264371219
536 1 27.926627797 24.881141695 1.6894249275
537 1 29.686747342 23.035364778 3.2359899486
538 1 31.24191008 24.906760431 1.6101750007
539 1 27.836320102 21.452025006 5.1421991666
540 1 31.313593835 21.399153154 5.1766513597
541 1 31.289951865 24.75043237 4.8752464223
542 1 32.931906366 26.253658862 3.0657994537
543 1 29.629900668 26.286268116 6.5384321285
544 1 34.621228899 21.331253328 1.6617882911
545 1 37.896442242 21.598856478 1.3751319693
546 1 36.369933558 23.054014587 3.1726981657
547 1 34.944982936 24.803747346 1.7439808508
548 1 37.931966542 24.758620741 4.9789930002
549 1 37.970179935 24.808493597 1.6441795917
550 1 39.549030092 23.003361155 0.0542079332
551 1 34.65628709 21.433708618 5.1102688898
552 1 37.977147659 21.415319054 4.7197960278
553 1 33.018725516 23.067911191 3.3339998951
554 1 34.687575573 24.663981674 5.0567319484
555 1 33.196773991 19.813165878 3.356144004
556 1 39.526347556 26.148351338 0.0605634451
557 1 36.310418519 26.348386281 3.3696901318
558 1 39.586340348 26.403180591 3.52614218
559 1 36.206766116 23.242402244 6.4617385528
560 1 41.247494055 21.36071837 1.9129189333
561 1 44.394405996 21.489263845 1.7934834689
562 1 41.217731777 24.794858515 1.686838546
563 1 43.048196154 23.186256119 0.0088764552
564 1 44.561244461 24.753033127 1.6447758477
565 1 41.268795674 21.353834231 5.1085980064
566 1 44.806490955 21.612300471 4.8934451564
567 1 41.267483411 24.529846723 5.0728725713
568 1 42.970998131 23.172119825 3.3654177253
569 1 44.499947828 24.7768902 4.9086763406
570 1 42.883677859 19.894776006 3.280246365
571 1 39.62950493 23.021289075 3.4172319851
572 1 39.612051656 19.914887784 6.594534215
573 1 42.968699326 23.165910207 6.4358101204
574 1 47.746102857 21.272988672 1.5565240863
575 1 51.194640922 21.433595375 1.4743282341
576 1 51.045081808 24.726179135 5.0713842432
577 1 47.963744742 24.719442371 1.5390035767
578 1 49.486524582 23.031920597 0.0536394187
579 1 51.136321325 24.736596925 1.7906679661
580 1 47.803213779 21.366664587 4.9741563514
581 1 51.141072538 21.379412739 5.0739118251
582 1 46.264324211 23.028389824 3.2492450842
583 1 47.787721766 24.671681274 4.9166434861
584 1 49.289992021 22.999048598 3.3388639426
585 1 46.38805282 19.880472712 0.005117861
586 1 49.537476883 19.842445003 3.3432341529
587 1 52.767952981 23.304058303 0.0323831539
588 1 49.631117071 19.951046678 6.5646420727
589 1 52.66788278 23.072607101 6.5777389077
590 1 54.293080921 21.41257745 1.7989450683
591 1 57.802101692 21.476570002 1.6429125557
592 1 57.643594967 24.733707129 4.9827220868
593 1 54.407371302 24.655852611 1.6724432038
594 1 56.028607004 23.242018956 0.109163229
595 1 57.730714908 24.756557912 1.6953067049
596 1 54.369880592 21.512642829 5.079938755
597 1 57.86015307 21.400534531 4.8898393599
598 1 52.901617099 22.978214491 3.2682619734
599 1 54.3304457 24.626311344 4.970762305
600 1 55.997903279 23.18627869 3.2216528978
601 1 56.14591962 19.818181628 3.340937279
602 1 59.342376255 22.984807679 3.3127965805
603 1 56.069753678 26.352721075 -0.007821813
604 1 59.354763455 26.341892917 0.0465461882
605 1 52.836165969 26.33908988 3.3334088983
606 1 60.986687846 21.473216526 1.7003286931
607 1 64.426346124 21.358193491 1.5731229929
608 1 59.537703174 22.98671252 0.0295540926
609 1 61.020358401 24.843431866 1.8051391126
610 1 62.769025244 23.013144917 3.1531923883
611 1 64.211944272 24.639088223 1.6501012919
612 1 61.010191592 21.567074543 5.0563126266
613 1 64.284873932 21.414787867 5.2297384669
614 1 64.339258134 24.81594294 5.068594844
615 1 60.854346345 24.785369534 4.8944506266
616 1 65.955097698 23.088699965 0.1462027364
617 1 65.956955016 23.090105846 3.2387499832
618 1 62.59479842 26.375430747 3.2256763981
619 1 65.988005604 23.114631105 6.4642361942
620 1 62.575647007 23.179493349 6.4928932496
621 1 65.975056107 26.292900743 6.4718249449
622 1 5.0830719758 31.222672174 5.0131168843
623 1 1.6480226003 28.002981246 1.6817625683
624 1 1.6218504991 31.171637759 4.9950000513
625 1 4.8823390057 27.852190671 1.5032813478
626 1 0.1518561278 29.65229658 0.0025766749
627 1 1.7905549209 31.385771982 1.8055430587
628 1 3.1499389285 29.846527105 3.4865263147
629 1 4.9775955079 31.339026461 1.6783734591
630 1 0.0521890934 26.413520863 3.2390212494
631 1 1.5463325636 27.970575759 5.0895560682
632 1 3.3088528259 26.479860713 3.2439721416
633 1 4.8179017121 28.115633982 4.9765243608
634 1 6.5771180133 29.648872868 3.0251472426
635 1 3.3574168472 32.924040267 3.2310810589
636 1 6.37514041 26.540491488 6.2966245877
637 1 0.0725706446 32.936204758 6.5751946212
638 1 9.9594350423 29.788482977 3.2621755442
639 1 8.2317986572 28.098832608 1.6045684281
640 1 11.439232944 28.17016131 4.8152234197
641 1 11.610529013 28.08271297 1.7398722166
642 1 11.572902939 31.309151203 4.9997728087
643 1 8.352488163 31.361937228 1.7181104927
644 1 8.3191438702 31.378092697 4.9841208002
645 1 11.555505208 31.366308362 1.6478084967
646 1 6.6552163009 26.485285409 3.3054680833
647 1 8.3439671416 28.191508811 4.822844861
648 1 13.116489779 29.597926359 3.297895806
649 1 9.9169993417 32.834511344 3.1718572864
650 1 13.102281842 26.468340276 6.5362211628
651 1 13.104852622 29.60211879 6.5751710169
652 1 6.7296404043 29.665642929 6.591242856
653 1 9.7990992717 29.64151775 6.5869199042
654 1 13.30444144 26.478246573 0.0154093836
655 1 14.919183496 28.138466587 1.6698395103
656 1 18.29022744 28.098642542 4.9034007038
657 1 18.268262986 27.931674637 1.656799346
658 1 18.140259197 31.380423155 4.9277720432
659 1 19.722806102 29.616562499 3.3252365557
660 1 14.937911848 31.344044034 1.791925232
661 1 14.887544857 31.205767896 4.9115700663
662 1 17.997084488 31.503130569 1.6341812767
663 1 16.555625686 29.734589353 3.315412137
664 1 13.238525588 26.464694539 3.2503061299
665 1 14.900095529 28.003680266 4.9191456254
666 1 16.432209867 26.613965362 3.3424019487
667 1 16.563342487 32.883114054 3.3782639123
668 1 19.770613921 32.927880423 3.2452578607
669 1 16.447109144 26.510426832 6.5207845072
670 1 21.437994144 28.112705974 1.6447944072