29791
Lattice="6.200000000000e+01 0.000000000000e+00 0.000000000000e+00 0.000000000000e+00 6.200000000000e+01 0.000000000000e+00 0.000000000000e+00 0.000000000000e+00 6.200000000000e+01" Properties=species:S:1:pos:R:3 Time=1.25
C         2.9950328550e+00  2.0896410064e+00  2.7812516708e+00
C         2.0233313647e+00  9.8034512114e-01  2.6008559469e+00
C         1.5878390858e+00  2.9314757992e+00  2.1317243712e+00
C         1.5853587041e-01  2.7652578915e+00  1.9268632757e+00
C         1.4921098892e+00  2.0968573199e+00  2.9027085202e-01
C         5.7480223487e-01  1.0135970362e+00  2.8900713720e+00
C         4.4951468105e+00  2.5377033144e+00  2.2903543715e+00
C         4.9740697306e+00  2.3788047397e+00  5.9347105841e-01
C         7.9517482442e+00  1.6916833559e+00  1.0953460396e+00
C         8.2000303576e+00  2.1264001992e+00  2.4334384238e+00
C         8.8421770002e+00  2.0951721645e+00  2.7712065021e-01
C         1.1481298647e+01  1.3283386728e+00  2.4465164382e+00
C         1.0572364273e+01  1.8584780670e+00  1.1753701254e+00
C         1.0657741366e+01  6.5919888940e-01  3.8580323006e-02
C         1.4963615272e+01  3.5754273003e-01  1.6202377150e+00
C         1.5293783784e+01  1.1469215183e+00  3.0687306373e+00
C         1.2623726527e+01  3.3011054792e-01  2.3183929556e+00
C         1.7592402224e+01  1.5276097326e+00  1.5702494463e+00
C         1.7259376814e+01  3.0166836617e+00  1.8708278056e+00
C         1.6226956329e+01  7.9987022379e-01  1.2145596874e+00
C         1.8458788606e+01  1.9159510326e+00  4.0044200663e-01
C         1.9652207871e+01  9.1665790141e-01  5.6805676312e-01
C         2.0990640536e+01  3.0218954303e+00  1.5381726982e+00
C         2.3296209387e+01  6.2772677407e-01  2.8393319038e+00
C         2.2365015081e+01  2.8046822430e+00  1.9697068589e+00
C         2.4003219060e+01  3.4370083909e-01  1.4825574428e+00
C         2.7523118897e+01  2.6836841027e+00  2.9478658514e-01
C         2.5089027696e+01  1.2462391211e+00  2.0020821136e+00
C         2.5222753736e+01  2.5272445957e+00  8.5940056751e-01
C         3.0113589266e+01  2.6441956528e+00  1.8859606961e-01
C         2.9910857074e+01  9.7081192157e-01  2.2034679156e+00
C         2.9383899572e+01  2.2068376205e+00  1.2655247249e+00
C         2.8603172105e+01  3.0200610568e+00  2.2278398791e+00
C         2.8532218830e+01  3.5629811097e-01  3.9662500231e-01
C         3.3749877649e+01  2.0329195608e+00  2.8725433075e+00
C         3.3731795449e+01  1.8881966808e+00  1.4282832829e+00
C         3.2838044216e+01  2.7909054828e+00  5.4927424700e-01
C         3.1097093641e+01  2.3920775956e-01  2.0109916492e+00
C         3.3611498116e+01  1.5064646375e+00  3.1036891498e-02
C         3.5613797716e+01  3.0414839208e+00  1.4304921074e+00
C         3.5142244875e+01  2.4299735977e+00  2.6398426690e+00
C         3.6943545584e+01  2.9070926174e+00  9.5880264707e-01
C         3.7184551133e+01  7.5435335252e-01  2.3913467663e+00
C         3.9619220193e+01  2.6687457957e+00  9.5508807670e-01
C         3.9768548874e+01  2.3229661155e+00  2.6401091314e+00
C         3.7449205855e+01  1.7433417958e+00  1.2248665141e+00
C         3.9349017002e+01  6.9658343315e-01  2.9817646086e-01
C         3.7885169894e+01  9.8073696974e-01 -1.8681270551e-02
C         4.1621433727e+01  9.4381498146e-01  2.6118008424e+00
C         4.3324074679e+01  1.5167030956e+00  6.1417925467e-01
C         4.2236827555e+01  2.1061367245e+00  1.8901583549e+00
C         4.3088507666e+01  2.5116945556e-01  2.4776352045e-01
C         4.0430440466e+01  1.7478181766e+00  2.2993714956e-01
C         4.0305029130e+01  2.5528552134e-01  3.0195153852e+00
C         4.5646287493e+01  2.2565743132e-02  1.6499880448e+00
C         4.5306399678e+01  2.7166238608e+00  2.3316850427e+00
C         4.5021717655e+01  8.6728465410e-01  2.9108305866e+00
C         4.6322422921e+01  2.7919059801e+00  1.0802978840e+00
C         4.8383195334e+01  1.2888637350e+00  1.3249348635e+00
C         4.9099642808e+01  2.5959890126e+00  1.2843745246e+00
C         4.7013179931e+01  1.2346728643e+00  2.3788983688e+00
C         5.1340953852e+01  2.0372197631e+00  1.0358324044e+00
C         5.1727702130e+01  2.0659857149e+00  2.4266809223e+00
C         5.0134443255e+01  2.5770984074e+00  3.5301487064e-01
C         5.2623465345e+01  1.8912910843e+00  1.2833775796e-01
C         5.5620994498e+01  2.5565426802e+00  1.8941843114e+00
C         5.5189480205e+01  4.8270511590e-01  2.3878198555e+00
C         5.4779473367e+01  1.5801666459e+00  1.1756226566e+00
C         5.3502254049e+01  4.5239042812e-01  2.5401000447e+00
C         5.3284402090e+01  1.7946585489e+00  2.9113351591e+00
C         5.4882849679e+01  8.9250391505e-01  2.0442019547e-02
C         5.7860656132e+01  1.3780744212e+00  1.9643595811e+00
C         5.6719471280e+01  7.6410743375e-01  1.3854474604e+00
C         5.9191663064e+01  1.2547996815e+00  3.0679031248e-01
C         5.8929398072e+01  1.7914010618e+00  2.7529783232e+00
C         6.0925142418e+01  2.6125777170e+00  1.8862239923e+00
C         5.9964737006e+01  7.1360413303e-01  2.5125188299e+00
C         6.1625601618e+01  2.2765174844e-02  1.2017552572e-01
C         5.9701507425e+01  2.8280199330e+00  9.1162124174e-01
C         1.2260409056e+00  4.8843255521e+00  2.0303452515e+00
C         1.9639640250e+00  4.9045997200e+00  6.9322394956e-01
C         2.2733829493e+00  3.3599693455e+00  8.7061934708e-01
C         3.7362405477e+00  3.3588090115e+00  7.4213529725e-01
C         5.1515071773e+00  5.7055779446e+00  2.5503619327e+00
C         5.2958969950e+00  3.7762640259e+00  1.9964097413e+00
C         7.3344442744e+00  4.8795792457e+00  2.1826057185e+00
C         8.3552427295e+00  5.6520373623e+00  1.2702868616e+00
C         8.3331884891e+00  4.4026236142e+00  2.3099914285e-01
C         6.4454444354e+00  4.0768244517e+00  1.4551061428e+00
C         7.2164622960e+00  3.4298398565e+00  5.4641435198e-01
C         6.3538532827e+00  5.6188964958e+00  3.0301528771e-01
C         1.0550033611e+01  5.0796737196e+00  1.0840438424e+00
C         1.0644786313e+01  3.4858406944e+00  1.8337759841e+00
C         9.5931659902e+00  6.1366664178e+00  1.7776588468e+00
C         1.0263275934e+01  3.7647644316e+00  3.0989207830e-01
C         1.0097963881e+01  3.9863480970e+00  3.0248434756e+00
C         1.2131799609e+01  5.9356938068e+00  1.8327049976e+00
C         1.2574261610e+01  4.6074575689e+00  1.9085694093e+00
C         1.2928677959e+01  4.4427432045e+00  5.8372631584e-01
C         1.5411160445e+01  5.2517461403e+00  2.4784160920e+00
C         1.6656704408e+01  3.5397121721e+00  8.3511923348e-01
C         1.5926459998e+01  4.8924375416e+00  1.2686399215e+00
C         1.7639860309e+01  3.8476589175e+00  3.0207054417e+00
C         2.0284430619e+01  3.8279787470e+00  2.4976150872e+00
C         1.9280790777e+01  6.0527801494e+00  1.5384029839e+00
C         1.9809163816e+01  5.0657561926e+00  2.4926170529e+00
C         1.8981712513e+01  5.2617694616e+00  2.3825187541e-02
C         2.0920229809e+01  3.9681020812e+00  3.5038068748e-01
C         2.3681718984e+01  3.0646851204e+00  1.2253261673e+00
C         2.2898088155e+01  5.2269363729e+00  2.5872552417e+00
C         2.3884301865e+01  4.1117227340e+00  2.5684007869e+00
C         2.4773734029e+01  5.4204966372e+00  1.5645320826e+00
C         2.4236411748e+01  5.7212466034e+00  3.0622129360e-01
C         2.2073551496e+01  6.1681718394e+00  1.7535878604e+00
C         2.7213360318e+01  3.4422738512e+00  1.7262735135e+00
C         2.6567433601e+01  4.5796479039e+00  7.6618691212e-01
C         2.5714108282e+01  3.6499809289e+00  3.3112514829e-02
C         2.6356982305e+01  5.9003987379e+00  6.0352733712e-01
C         2.5991234902e+01  3.6053436259e+00  2.4192515937e+00
C         3.0122024706e+01  5.9529329334e+00  3.2670855323e-01
C         2.9304619098e+01  5.0582869216e+00  1.9609298423e+00
C         2.8959549283e+01  5.1036416910e+00  5.5449798288e-01
C         3.0703496757e+01  5.1000483407e+00  2.0380025460e+00
C         3.1758710246e+01  4.4325722465e+00  1.5771487298e+00
C         3.2706238828e+01  3.9489281878e+00  2.8291259578e+00
C         3.2782378921e+01  5.5758692997e+00  8.8867297276e-01
C         3.1470954686e+01  3.4662742054e+00  2.1514791519e-01
C         3.3932816530e+01  4.3738825848e+00  2.7339316284e+00
C         3.4864952740e+01  5.7251604876e+00  2.7214356989e+00
C         3.4919100908e+01  4.2926661628e+00  6.9169462479e-01
C         3.5732453383e+01  5.3835762592e+00  2.2084727542e-01
C         3.7543153481e+01  5.5080725723e+00  9.9979287662e-01
C         3.7609899983e+01  4.1011413895e+00  1.3611855289e+00
C         3.8563407636e+01  3.4054677605e+00  2.5012188207e+00
C         4.0090159442e+01  5.4375136161e+00  2.9925322161e+00
C         3.9763075318e+01  5.4902350090e+00  2.1750310489e-02
C         4.1700460674e+01  3.2512951880e+00  7.8198864102e-01
C         4.5127985093e+01  4.0406900145e+00  2.4176259191e+00
C         4.3697693365e+01  5.6255890352e+00  2.1799506829e+00
C         4.5168334169e+01  5.0094669207e+00  1.0168417892e+00
C         4.3672322012e+01  5.6283488593e+00  2.6371885141e-01
C         4.6394806833e+01  4.9895323271e+00  3.0119840793e+00
C         4.8725421388e+01  3.6294770073e+00  2.4374692887e+00
C         4.6588010072e+01  5.6094527829e+00  9.6961669211e-01
C         4.7008069850e+01  4.0178535332e+00  5.2607039390e-01
C         5.2189414451e+01  4.0360958278e+00  2.4616215985e+00
C         5.0139281774e+01  6.0023361371e+00  8.3721007274e-01
C         5.1620807558e+01  6.1070561308e+00  5.0225354131e-01
C         4.9788334839e+01  5.0528152014e+00  2.0733207700e+00
C         5.2584071094e+01  4.0358782957e+00  1.3643221107e+00
C         5.4871912758e+01  5.7624562293e+00  6.3368974648e-01
C         5.3426971978e+01  3.4415054354e+00  5.4551338240e-02
C         5.4924247791e+01  4.2273229730e+00  1.8365816654e-01
C         5.5703835312e+01  4.9716164002e+00  3.0080769762e+00
C         5.8385756345e+01  4.6206809198e+00  2.7173726120e+00
C         5.8314944989e+01  4.4213683626e+00  1.2492308241e+00
C         5.6043288661e+01  6.0009943283e+00  1.7686203722e+00
C         5.7129219415e+01  4.5885094477e+00  4.3922246476e-01
C         6.0678336370e+01  5.2925098421e+00  3.9525996205e-01
C         5.9662211290e+01  4.3385629664e+00  5.9506667634e-01
C         6.1917536137e+01  4.6647752596e+00  1.2842634438e-01
C         1.6439615878e+00  8.4409441543e+00  1.1445649524e+00
C         4.9621599236e-01  7.6091882828e+00  9.4507454192e-01
C         6.2432416562e-01  6.3627816568e+00  1.6834558788e+00
C         2.1583571954e+00  8.6390630256e+00  2.5571340550e+00
C         2.7263518242e+00  8.2891667764e+00  1.4480491451e-01
C         2.4227302361e+00  6.4063387474e+00  7.4263478768e-01
C         2.9648215713e+00  7.1258930940e+00  1.8438686441e+00
C         2.9793760745e+00  6.4427632199e+00  3.0061116691e+00
C         6.0360555223e+00  8.9995311566e+00  1.6609139416e+00
C         4.1648816786e+00  7.2774111456e+00  1.1384790216e+00
C         5.2479700623e+00  6.2423925231e+00  1.0092664601e+00
C         3.8771836467e+00  9.2664661285e+00  3.7496919272e-01
C         7.6547289807e+00  8.8828349899e+00  2.2597896226e+00
C         8.6782255826e+00  8.0983956748e+00  1.4190417103e+00
C         1.0016955397e+01  7.3995256434e+00  2.0208083503e+00
C         1.1860126061e+01  6.5718692081e+00  3.0267347504e+00
C         1.1125924401e+01  7.9294700116e+00  2.7205930030e+00
C         1.1273188571e+01  6.4218678416e+00  4.7143463947e-01
C         1.0595033446e+01  8.7714956737e+00  1.6068000566e-02
C         1.4045774940e+01  8.6177168606e+00  2.4266617841e+00
C         1.5447742837e+01  7.1028020209e+00  1.0814984784e+00
C         1.3915259563e+01  9.1923522376e+00  4.4131812138e-02
C         1.4302570645e+01  7.5106930338e+00  1.3339693272e-02
C         1.6573011175e+01  6.2476049702e+00  4.9423816091e-01
C         1.5887827399e+01  8.1730366651e+00  1.8805273677e+00
C         2.1411093087e+01  6.2333423912e+00  1.7208754949e-01
C         1.9968040965e+01  7.1426995934e+00  2.7527123629e+00
C         2.1443705962e+01  8.9734893805e+00  1.3954873385e+00
C         2.1495863627e+01  8.8015945744e+00  2.8621241106e+00
C         2.2646405934e+01  7.5968891218e+00  1.2914587588e+00
C         2.3704504551e+01  8.5780929241e+00  1.6014758281e+00
C         2.5253052405e+01  7.7769184247e+00  2.9097516524e+00
C         2.7641347730e+01  6.5860420919e+00  7.4804627400e-01
C         2.5532563653e+01  6.4932388364e+00  2.4163539304e+00
C         2.7239863458e+01  6.3013941443e+00  2.3740649360e+00
C         2.8870165350e+01  7.5528065509e+00  4.6040823370e-01
C         3.0206891554e+01  7.2415309624e+00  9.2852380225e-01
C         3.0664848529e+01  7.8575846405e+00  2.1657977562e+00
C         3.0991651033e+01  6.4708789668e+00  2.7067539237e+00
C         3.2825317930e+01  7.0356840376e+00  3.7700678942e-01
C         3.4039889756e+01  6.8688350718e+00  2.9524724486e+00
C         3.1628964817e+01  8.6772457409e+00  2.3788061189e+00
C         3.3441189147e+01  7.9498370157e+00  1.3172403725e+00
C         3.4017153349e+01  8.6291287664e+00  2.5266931256e+00
C         3.5610531754e+01  7.2978371223e+00  1.5088056852e+00
C         3.6618818016e+01  8.3585426871e+00  2.0267394321e+00
C         3.5479986027e+01  6.5922094648e+00  4.6124718683e-01
C         3.7733093194e+01  7.7353005947e+00  1.1874747919e+00
C         3.8374572016e+01  8.6630664718e+00  3.2678726951e-01
C         3.8217332455e+01  6.5403299056e+00  1.3515763993e+00
C         3.9038479566e+01  6.5253921240e+00  2.6384149576e+00
C         3.9940829485e+01  8.3580520335e+00  3.1420071553e-01
C         4.0300220859e+01  7.0392286430e+00  5.2667253667e-01
C         4.1664913990e+01  6.7230313234e+00  1.0950039848e+00
C         4.0519330960e+01  8.5091917572e+00  2.9968792499e+00
C         4.2126307261e+01  6.8546166488e+00  2.3572920077e+00
C         4.3099426703e+01  9.0260124170e+00  2.8610210888e+00
C         4.2635586968e+01  6.7209766344e+00  7.4731178930e-02
C         4.5571464767e+01  7.7989134867e+00  8.9739072648e-01
C         4.5155667187e+01  8.0657980101e+00  2.4318824915e+00
C         4.6469038983e+01  6.9563473017e+00  3.3970969327e-01
C         4.8990268783e+01  9.1139074215e+00  2.9973907995e+00
C         4.7883870880e+01  7.0864477333e+00  8.3938619841e-03
C         5.2687196025e+01  6.4363512620e+00  1.5055477416e+00
C         5.1010892720e+01  8.7275353547e+00  2.3689995703e+00
C         5.2611494822e+01  6.4521045751e+00  2.9203651648e+00
C         5.3203799645e+01  9.1864489592e+00  1.1671082750e+00
C         5.5377353514e+01  7.7353523793e+00  2.7263826730e+00
C         5.3674356598e+01  6.7018644746e+00  6.4448079234e-01
C         5.4079088996e+01  8.4711478918e+00  2.6996161869e+00
C         5.8742802353e+01  6.6024711193e+00  9.5235575269e-01
C         5.7659575709e+01  6.3069640506e+00  1.9813903693e+00
C         5.7252159242e+01  8.6466270593e+00  2.8951984697e+00
C         6.1060217878e+01  7.8057900906e+00  1.0333420672e+00
C         6.0285669487e+01  9.1189469408e+00  7.4301971730e-01
C         6.0749893034e+01  9.0637622915e+00  2.3540502311e+00
C         6.0092153229e+01  6.7718010166e+00  5.8195294914e-01
C         1.4974048782e+00  9.8344717390e+00  3.6895326211e-01
C         2.2539945975e+00  1.1564205923e+01  1.8722555381e+00
C         4.5646221969e-01  1.0624437526e+01  6.6469608703e-01
C         2.9867159843e+00  1.2002266034e+01  5.3053377209e-01
C         2.9876334287e+00  9.6352811145e+00  2.8954658578e+00
C         5.2637577902e+00  9.3865293715e+00  6.7933699955e-01
C         3.9146004424e+00  1.0974210169e+01  2.9132393763e+00
C         5.1179124253e+00  1.2378905769e+01  6.9786314438e-01
C         8.1760885113e+00  1.0201342367e+01  2.8890570410e+00
C         6.4916152627e+00  1.2176160972e+01  5.1864150037e-01
C         1.0131302445e+01  1.0183634805e+01  8.7978883981e-01
C         1.1918937350e+01  9.5206626108e+00  4.5034932544e-01
C         1.1621827012e+01  1.2284638530e+01  2.2937035970e+00
C         9.6878246474e+00  1.0603546914e+01  2.3052198806e+00
C         1.4166531797e+01  9.6611344941e+00  1.4626101305e+00
C         1.4027054706e+01  1.2040861888e+01  1.2657415030e+00
C         1.5107354066e+01  1.0983947026e+01  1.5622251604e+00
C         1.2915245482e+01  1.1182723958e+01  1.8920387396e+00
C         1.2683607327e+01  9.9081257186e+00  1.4025531155e+00
C         1.6449978145e+01  1.1889606247e+01  1.6071870664e+00
C         2.0862782993e+01  1.1348490439e+01  4.1688663944e-01
C         2.1119706213e+01  1.0017689227e+01  4.5000982720e-01
C         2.4101951520e+01  9.7319947490e+00  9.5986761857e-01
C         2.2041219835e+01  1.1716406444e+01  7.8424354076e-01
C         2.2356334085e+01  1.2181286512e+01  1.9223593618e+00
C         2.6106255935e+01  1.0908133979e+01  1.0295628398e+00
C         2.4900240048e+01  1.0660527758e+01  1.7877346872e+00
C         2.6997802742e+01  1.2087901906e+01  3.0515688981e+00
C         3.0303758821e+01  1.2070918841e+01  2.3157032336e+00
C         3.3849246474e+01  1.0762747221e+01  3.5467844103e-03
C         3.2386810713e+01  1.1372106565e+01  2.2062893276e+00
C         3.1722538382e+01  1.0050246077e+01  2.4529705110e+00
C         3.3396214953e+01  9.3301590257e+00  5.3615104683e-01
C         3.6880904405e+01  1.1799725447e+01  1.9082234549e+00
C         3.6929688442e+01  1.0814845106e+01  7.7034208295e-01
C         3.5648136862e+01  9.9495951646e+00  1.4396276978e+00
C         3.5148675752e+01  9.8870165884e+00  2.7958148410e+00
C         3.7103815395e+01  9.3627651074e+00  2.5707424292e+00
C         3.7454504096e+01  1.0868609291e+01  2.8157938943e+00
C         3.8691856420e+01  9.8449673793e+00  2.6253096769e+00
C         4.0208523078e+01  1.0533989020e+01  4.7586194120e-01
C         3.7911883531e+01  1.0086520741e+01  1.8737289576e-01
C         3.9938425881e+01  9.3565032883e+00  1.7269110525e+00
C         4.2226616499e+01  1.0192134475e+01  2.8667753623e+00
C         4.2164357184e+01  1.1002194465e+01  1.6118965158e+00
C         4.0947083669e+01  1.1763633269e+01  9.9293804229e-01
C         4.3091858780e+01  1.0284808914e+01  3.2082540946e-01
C         4.4425391338e+01  1.0862504886e+01  8.3962872673e-01
C         4.4545668948e+01  1.0994605758e+01  2.4727032317e+00
C         4.4511672719e+01  9.3833061506e+00  2.6200797094e+00
C         4.8109129600e+01  1.2299851941e+01  1.8998287693e+00
C         4.7901786630e+01  9.6465331044e+00  2.9067876668e+00
C         4.9394151112e+01  1.0476730465e+01  5.0484411267e-01
C         4.8580608898e+01  1.2359148497e+01  5.6482319628e-01
C         4.9066946295e+01  1.1610362177e+01  2.9765823819e+00
C         4.7490803176e+01  1.1058651869e+01  2.6965253941e+00
C         4.9672460448e+01  1.0903680557e+01  1.8597179960e+00
C         5.1067784545e+01  1.0481573090e+01  2.3134710107e+00
C         5.1805186476e+01  1.2065070078e+01  5.7429062913e-01
C         5.1465720852e+01  1.0734926466e+01  3.5566073874e-01
C         5.3453434724e+01  1.0759641770e+01  1.3943139074e+00
C         5.4296651351e+01  9.9238074970e+00  2.3009643730e+00
C         5.3055599393e+01  1.2079922018e+01  1.6625060958e+00
C         5.4658299856e+01  1.1635964863e+01  2.3291311788e-01
C         5.7521601091e+01  9.4399697095e+00  1.7526039929e+00
C         5.7332822597e+01  9.9645340347e+00  3.4383784091e-01
C         5.6545155228e+01  1.2056478053e+01  1.8844264080e+00
C         5.8078758392e+01  1.1586010431e+01  2.9561295705e-01
C         5.6348535527e+01  1.1112780953e+01  2.9163263153e+00
C         6.1139175229e+01  1.0387107150e+01  1.0594192238e+00
C         5.9830647876e+01  1.1479659752e+01  7.7667414839e-01
C         6.0257769001e+01  1.1744280347e+01  2.3193302065e+00
C         1.1126396341e+00  1.4008125507e+01  1.7409679081e+00
C         1.0585891198e+00  1.5121697700e+01  2.7940848881e+00
C         6.9482123810e-01  1.4489469791e+01  2.8587556862e-01
C         1.0646855141e+00  1.2545494248e+01  2.3473823920e+00
C         4.8312261054e+00  1.3068101583e+01  1.9469911863e+00
C         4.0847634622e+00  1.5082321164e+01  1.3001318392e+00
C         3.8367373838e+00  1.3773848353e+01  1.7960207954e+00
C         3.2323011721e+00  1.4013085520e+01  2.9607571855e+00
C         5.4070028268e+00  1.5414387395e+01  7.8018831198e-01
C         8.6125480699e+00  1.5304765073e+01  2.9159751228e+00
C         6.6297583373e+00  1.4731289976e+01  1.5853566226e+00
C         7.1207944267e+00  1.3562543278e+01  5.7770213467e-01
C         7.2548970271e+00  1.5247505260e+01  2.6362212901e+00
C         9.6638306599e+00  1.4583826669e+01  2.1400894779e+00
C         1.1054672891e+01  1.5006410131e+01  5.4607435105e-01
C         1.0189844028e+01  1.3251891633e+01  2.7948045112e+00
C         1.1559899331e+01  1.2522827956e+01  4.3778982105e-01
C         1.2944823678e+01  1.3110095217e+01  1.1263666905e+00
C         1.4349390283e+01  1.4386127761e+01  8.0317838925e-01
C         1.2598310805e+01  1.4477571125e+01  1.1136274013e+00
C         1.5495873660e+01  1.4921546855e+01  1.8038527672e+00
C         1.6401295823e+01  1.2621185486e+01  3.4540348908e-01
C         1.7193983917e+01  1.2707850167e+01  2.7684227867e+00
C         1.5618990201e+01  1.4207567984e+01  2.9436501696e+00
C         2.0428450754e+01  1.3330779952e+01  3.4327024313e-01
C         2.1255935980e+01  1.4374483252e+01  8.4873601984e-01
C         2.0068203706e+01  1.5174079479e+01  1.5220226796e+00
C         2.0379135175e+01  1.5404475207e+01  2.8351129633e+00
C         1.9068524976e+01  1.3009757002e+01  9.3382169870e-01
C         1.8816020779e+01  1.2734797276e+01  2.2187036753e+00
C         2.2399901218e+01  1.3865831544e+01  1.9200006445e+00
C         2.3695332460e+01  1.4810341183e+01  2.4286080426e+00
C         2.4753713461e+01  1.3969866139e+01  2.8704548891e+00
C         2.2638062532e+01  1.5342203270e+01  3.6147875524e-01
C         2.5918554561e+01  1.3837272592e+01  2.4765413114e+00
C         2.6619588491e+01  1.2620211623e+01  2.0143130605e+00
C         2.7579132787e+01  1.3387888614e+01  1.0044064754e+00
C         2.8636562384e+01  1.4307911855e+01  1.6992309007e+00
C         3.0944835211e+01  1.2837082965e+01  9.6022179145e-01
C         3.0700447881e+01  1.4665390981e+01  2.8385653661e+00
C         2.9427945848e+01  1.5439837417e+01  1.0198833789e+00
C         2.9362705952e+01  1.4286824713e+01  2.9079250280e+00
C         3.1315270239e+01  1.5117321776e+01  1.7869081796e+00
C         3.1961402904e+01  1.4826167809e+01  6.2821191056e-01
C         3.2220125475e+01  1.3452034117e+01  9.0440475599e-01
C         3.3010903923e+01  1.2784837483e+01  1.9261678772e+00
C         3.6117549969e+01  1.3010238052e+01  1.9773172330e+00
C         3.4594199452e+01  1.4767625777e+01  1.4882082872e+00
C         3.4632717378e+01  1.3114942270e+01  2.1155792599e+00
C         3.6974418960e+01  1.4929747776e+01  8.5033837611e-01
C         3.5033788378e+01  1.5310690728e+01  2.7379753505e+00
C         3.9098623693e+01  1.4153791366e+01  1.7698758662e+00
C         3.7682527157e+01  1.4125999748e+01  2.1036713967e+00
C         3.9538816120e+01  1.5467994323e+01  1.5328813117e+00
C         4.0497381717e+01  1.3880548573e+01  2.7163130403e+00
C         4.3037372765e+01  1.4411447582e+01  7.2612152311e-01
C         4.1136567882e+01  1.3039354435e+01  1.5796645133e+00
C         4.1750060624e+01  1.3689604660e+01  5.2628771257e-01
C         4.6059463465e+01  1.3573412546e+01  1.7522097501e+00
C         4.4573176576e+01  1.5048551858e+01  2.3689893583e-01
C         4.5749783200e+01  1.3815598368e+01  2.4225763929e-01
C         4.6489742546e+01  1.2480204454e+01  2.3870699967e+00
C         4.7406395473e+01  1.4709230218e+01  1.6231742601e+00
C         4.7978539754e+01  1.5183113315e+01  1.0961949666e-01
C         5.2436868866e+01  1.3259975783e+01  3.3057172468e-01
C         5.0547132105e+01  1.2820111154e+01  1.9198574222e+00
C         4.9790882345e+01  1.3486762742e+01  1.2499604155e+00
C         5.3694442693e+01  1.3034304872e+01  2.5951884457e+00
C         5.3529771917e+01  1.4276512218e+01  1.3109482820e+00
C         5.4629654509e+01  1.3242413108e+01  1.2244648642e+00
C         5.5708769521e+01  1.3188209154e+01  2.3595343589e+00
C         5.6236844590e+01  1.4543745873e+01  1.4763731748e+00
C         5.7343184485e+01  1.2591689974e+01  8.3048772497e-01
C         5.7781974949e+01  1.4237433227e+01  9.0391394435e-01
C         6.0261383777e+01  1.2796349716e+01  2.2424394025e-01
C         5.9352054426e+01  1.3815467015e+01  4.9219150699e-01
C         6.1482793949e+01  1.2519706685e+01  2.2514863438e+00
C         2.1748026687e+00  1.6608433199e+01  2.6109017283e-01
C         1.8489304031e+00  1.6290229055e+01  2.4485628889e+00
C         2.6263265631e+00  1.6091062003e+01  1.3325399809e+00
C         1.0681800605e+00  1.7425693594e+01  2.7365306196e+00
C         7.8222919572e+00  1.6728590069e+01  1.1545683908e+00
C         8.1751592779e+00  1.7761602043e+01  2.4230516064e+00
C         8.9174548759e+00  1.5953628554e+01  5.0408000541e-01
C         6.6472466724e+00  1.7403978554e+01  9.2831259275e-02
C         1.0525100181e+01  1.5506356956e+01  1.6373575175e+00
C         1.0626007294e+01  1.6702196860e+01  2.4839808026e+00
C         1.0049986774e+01  1.8073594080e+01  1.6587239235e+00
C         1.2186219706e+01  1.7575693137e+01  2.2814066155e+00
C         9.8037990354e+00  1.8080353085e+01  3.9424200325e-01
C         1.3384358073e+01  1.7167287220e+01  3.0561676528e+00
C         1.6398011268e+01  1.5783193488e+01  1.3473081228e+00
C         1.7337886530e+01  1.6195416696e+01  2.4477440694e+00
C         1.6675378321e+01  1.7333816881e+01  2.8918261255e+00
C         1.6027384391e+01  1.8356633261e+01  1.8430975170e+00
C         1.7270472173e+01  1.8472726938e+01  1.2287319946e+00
C         2.0162184527e+01  1.5868787080e+01  2.4154957925e-02
C         2.0278802123e+01  1.8127904982e+01  1.1022117934e+00
C         2.1159251484e+01  1.8505478161e+01  2.0839387467e+00
C         1.9584243432e+01  1.7249582933e+01  1.0817834112e-01
C         2.4487598420e+01  1.7924563535e+01  9.7676258291e-01
C         2.2425536116e+01  1.6919494489e+01  1.0514435728e+00
C         2.3326551572e+01  1.8289558906e+01  7.0113446188e-01
C         2.3442959587e+01  1.6134525324e+01  2.1227574465e+00
C         2.4557734378e+01  1.7069765047e+01  2.1107925159e+00
C         2.1991030677e+01  1.7263719507e+01  2.5173548978e+00
C         2.7489058082e+01  1.7877023213e+01  6.2137283724e-01
C         2.5420137066e+01  1.6619538717e+01  3.0099308943e+00
C         2.5604702881e+01  1.7410320653e+01  6.9478118627e-02
C         2.8893210787e+01  1.7584394875e+01  2.3655459876e+00
C         2.9882474401e+01  1.6648169652e+01  2.1278986105e+00
C         3.1979202724e+01  1.7191569715e+01  3.2356992455e-01
C         3.2793762266e+01  1.8086932752e+01  1.3438118012e+00
C         3.1264457305e+01  1.6539966150e+01  1.8297019520e+00
C         3.3850225767e+01  1.8318575897e+01  1.9805916004e-01
C         3.6423697911e+01  1.6216772933e+01  8.0908652281e-01
C         3.6389787731e+01  1.7512834581e+01  1.4492601868e-01
C         3.4456322233e+01  1.5698785137e+01  1.4391674107e-01
C         3.8965928091e+01  1.6189110886e+01  4.0463165227e-01
C         4.0999127123e+01  1.5814797219e+01  1.5406061889e+00
C         4.0647549414e+01  1.7266629162e+01  2.0704118415e+00
C         4.1014624907e+01  1.8290848241e+01  1.1568356182e+00
C         4.2461750921e+01  1.5694523441e+01  1.5007370328e+00
C         4.3661289432e+01  1.5521575296e+01  2.6939687468e+00
C         4.5008710102e+01  1.6409722491e+01  4.1016884086e-01
C         4.3718774650e+01  1.7232806780e+01  2.6740411765e-01
C         4.3736478692e+01  1.6982141024e+01  2.8652373804e+00
C         4.7839193436e+01  1.7295521821e+01  1.5655916122e+00
C         4.7525031672e+01  1.6514695239e+01  3.6010895151e-01
C         4.9144505567e+01  1.7468894213e+01  2.2582752180e+00
C         4.6946042370e+01  1.7950706522e+01  2.8038153608e+00
C         5.1091313843e+01  1.7886214386e+01  9.8912030659e-01
C         5.2290714858e+01  1.6083770303e+01  2.1384220756e+00
C         5.2118055257e+01  1.7636224728e+01  2.3396386012e+00
C         4.9762486579e+01  1.8250211989e+01  1.1495715260e+00
C         5.3503957564e+01  1.5795254788e+01  1.4884015967e+00
C         5.5067969276e+01  1.6622534997e+01  1.5139247900e+00
C         5.8180108071e+01  1.8476015204e+01  4.5332743913e-01
C         5.7920575412e+01  1.8047763604e+01  2.5524452565e+00
C         5.5970286286e+01  1.7214913774e+01  5.8736300941e-01
C         5.6835056383e+01  1.7024138377e+01  2.9788592275e+00
C         5.6496388525e+01  1.5762929288e+01  4.5442205760e-01
C         5.6050402867e+01  1.5875927182e+01  2.3827421294e+00
C         5.8825208948e+01  1.6992321387e+01  8.2398158960e-01
C         5.6469930959e+01  1.8354980467e+01  4.1201438071e-02
C         5.9405531822e+01  1.6925698114e+01  2.2106228217e+00
C         6.0825107988e+01  1.8151203047e+01  2.7576321908e-01
C         3.0036820691e+00  2.1025518403e+01  1.3637457142e+00
C         1.2005790278e+00  1.9544970618e+01  1.5065642442e+00
C         1.7227107819e+00  2.0949189388e+01  1.7884207287e+00
C         9.5997235826e-01  2.1549389303e+01  2.8395462661e+00
C         5.9154098579e-01  1.9633076742e+01  2.7084436715e-01
C         1.8617827594e+00  1.8742114426e+01  2.3364967324e+00
C         5.6175224874e+00  1.9559386616e+01  4.0898709019e-01
C         4.4182203877e+00  1.9201962718e+01  1.0926510009e+00
C         4.0231985814e+00  2.1123444683e+01  2.1142800992e+00
C         6.1875320716e+00  2.0401058045e+01  1.5493937433e+00
C         3.4915914693e+00  1.8615384677e+01  2.0997242481e+00
C         9.1346145452e+00  2.0352831889e+01  1.4242106921e+00
C         8.7803875320e+00  1.9478814768e+01  3.0111877213e-01
C         7.2141545924e+00  2.1254751743e+01  8.3522857190e-01
C         6.7414017785e+00  1.9973986567e+01  2.7609677274e+00